s -t 11.007183507 -Hs 8 -Hd -2 -Ni 8 -Nx 10.81 -Ny 18.49 -Nz 0.00 -Ne 9.999837 -Nl AGT -Nw --- -Ma 0 -Md 0 -Ms 0 -Mt 0 -Is 8.2020 -Id 2.2020 -It udp -Il 32 -If 0 -Ii 0 -Iv 32 
r -t 11.007183507 -Hs 8 -Hd -2 -Ni 8 -Nx 10.81 -Ny 18.49 -Nz 0.00 -Ne 9.999837 -Nl RTR -Nw --- -Ma 0 -Md 0 -Ms 0 -Mt 0 -Is 8.2020 -Id 2.2020 -It udp -Il 32 -If 0 -Ii 0 -Iv 32 
s -t 11.007183507 -Hs 8 -Hd -2 -Ni 8 -Nx 10.81 -Ny 18.49 -Nz 0.00 -Ne 9.999837 -Nl RTR -Nw --- -Ma 0 -Md 0 -Ms 0 -Mt 0 -Is 8.2020 -Id 2.2020 -It udp -Il 32 -If 0 -Ii 0 -Iv 32 
N -t 11.007699 -n 13 -e 9.999821
N -t 11.007699 -n 7 -e 9.999821
N -t 11.007699 -n 2 -e 99.999794
N -t 11.007699 -n 12 -e 9.999821
N -t 11.007699 -n 4 -e 9.994983
N -t 11.007699 -n 10 -e 9.999821
N -t 11.007699 -n 5 -e 9.999821
N -t 11.007699 -n 1 -e 99.999656
N -t 11.007699 -n 3 -e 99.999794
N -t 11.007699 -n 9 -e 9.999821
N -t 11.007699 -n 6 -e 9.999821
N -t 11.007699 -n 0 -e 99.999656
N -t 11.007699 -n 11 -e 9.999821
N -t 11.009002 -n 13 -e 9.999813
N -t 11.009002 -n 12 -e 9.999813
N -t 11.009002 -n 8 -e 9.999804
N -t 11.009002 -n 7 -e 9.999813
N -t 11.009002 -n 10 -e 9.999813
N -t 11.009002 -n 4 -e 9.994974
N -t 11.009002 -n 1 -e 99.999480
N -t 11.009002 -n 5 -e 9.999813
N -t 11.009002 -n 3 -e 99.999688
N -t 11.009002 -n 0 -e 99.999480
N -t 11.009002 -n 9 -e 9.999813
N -t 11.009002 -n 6 -e 9.999813
N -t 11.009002 -n 11 -e 9.999813
s -t 11.009346132 -Hs 10 -Hd -2 -Ni 10 -Nx 0.94 -Ny 8.85 -Nz 0.00 -Ne 9.999813 -Nl AGT -Nw --- -Ma 0 -Md 0 -Ms 0 -Mt 0 -Is 10.2020 -Id 2.2020 -It udp -Il 32 -If 0 -Ii 1 -Iv 32 
r -t 11.009346132 -Hs 10 -Hd -2 -Ni 10 -Nx 0.94 -Ny 8.85 -Nz 0.00 -Ne 9.999813 -Nl RTR -Nw --- -Ma 0 -Md 0 -Ms 0 -Mt 0 -Is 10.2020 -Id 2.2020 -It udp -Il 32 -If 0 -Ii 1 -Iv 32 
s -t 11.009346132 -Hs 10 -Hd -2 -Ni 10 -Nx 0.94 -Ny 8.85 -Nz 0.00 -Ne 9.999813 -Nl RTR -Nw --- -Ma 0 -Md 0 -Ms 0 -Mt 0 -Is 10.2020 -Id 2.2020 -It udp -Il 32 -If 0 -Ii 1 -Iv 32 
N -t 11.009364 -n 13 -e 9.999805
N -t 11.009364 -n 7 -e 9.999805
N -t 11.009364 -n 2 -e 99.999491
N -t 11.009364 -n 12 -e 9.999805
N -t 11.009364 -n 4 -e 9.994967
N -t 11.009364 -n 10 -e 9.999805
N -t 11.009364 -n 5 -e 9.999805
N -t 11.009364 -n 1 -e 99.999328
N -t 11.009364 -n 3 -e 99.999597
N -t 11.009364 -n 9 -e 9.999805
N -t 11.009364 -n 6 -e 9.999805
N -t 11.009364 -n 0 -e 99.999328
N -t 11.009364 -n 11 -e 9.999805
N -t 11.009678 -n 13 -e 9.999789
N -t 11.009678 -n 12 -e 9.999789
N -t 11.009678 -n 8 -e 9.999777
N -t 11.009678 -n 7 -e 9.999789
N -t 11.009678 -n 10 -e 9.999789
N -t 11.009678 -n 4 -e 9.994951
N -t 11.009678 -n 1 -e 99.998984
N -t 11.009678 -n 5 -e 9.999789
N -t 11.009678 -n 3 -e 99.999390
N -t 11.009678 -n 0 -e 99.998984
N -t 11.009678 -n 9 -e 9.999789
N -t 11.009678 -n 6 -e 9.999789
N -t 11.009678 -n 11 -e 9.999789
N -t 11.010376 -n 13 -e 9.999781
N -t 11.010376 -n 7 -e 9.999781
N -t 11.010376 -n 2 -e 99.998987
N -t 11.010376 -n 12 -e 9.999781
N -t 11.010376 -n 4 -e 9.994943
N -t 11.010376 -n 10 -e 9.999781
N -t 11.010376 -n 5 -e 9.999781
N -t 11.010376 -n 1 -e 99.998832
N -t 11.010376 -n 3 -e 99.999299
N -t 11.010376 -n 9 -e 9.999781
N -t 11.010376 -n 6 -e 9.999781
N -t 11.010376 -n 0 -e 99.998832
N -t 11.010376 -n 11 -e 9.999781
N -t 11.011030 -n 1 -e 99.998488
N -t 11.011030 -n 0 -e 99.998488
N -t 11.011030 -n 7 -e 9.999765
N -t 11.011030 -n 8 -e 9.999749
N -t 11.011030 -n 13 -e 9.999765
N -t 11.011030 -n 2 -e 99.998781
N -t 11.011030 -n 4 -e 9.994927
N -t 11.011030 -n 12 -e 9.999765
N -t 11.011030 -n 3 -e 99.999093
N -t 11.011030 -n 9 -e 9.999765
N -t 11.011030 -n 5 -e 9.999765
N -t 11.011030 -n 6 -e 9.999765
N -t 11.011030 -n 11 -e 9.999765
N -t 11.011788 -n 13 -e 9.999756
N -t 11.011788 -n 7 -e 9.999756
N -t 11.011788 -n 2 -e 99.998675
N -t 11.011788 -n 12 -e 9.999756
N -t 11.011788 -n 4 -e 9.994918
N -t 11.011788 -n 10 -e 9.999748
N -t 11.011788 -n 5 -e 9.999756
N -t 11.011788 -n 1 -e 99.998312
N -t 11.011788 -n 3 -e 99.998987
N -t 11.011788 -n 9 -e 9.999756
N -t 11.011788 -n 6 -e 9.999756
N -t 11.011788 -n 0 -e 99.998312
N -t 11.011788 -n 11 -e 9.999756
N -t 11.012150 -n 13 -e 9.999749
N -t 11.012150 -n 12 -e 9.999749
N -t 11.012150 -n 8 -e 9.999729
N -t 11.012150 -n 7 -e 9.999749
N -t 11.012150 -n 10 -e 9.999741
N -t 11.012150 -n 4 -e 9.994911
N -t 11.012150 -n 1 -e 99.998160
N -t 11.012150 -n 5 -e 9.999749
N -t 11.012150 -n 3 -e 99.998896
N -t 11.012150 -n 0 -e 99.998160
N -t 11.012150 -n 9 -e 9.999749
N -t 11.012150 -n 6 -e 9.999749
N -t 11.012150 -n 11 -e 9.999749
N -t 11.012464 -n 13 -e 9.999732
N -t 11.012464 -n 7 -e 9.999732
N -t 11.012464 -n 2 -e 99.998277
N -t 11.012464 -n 12 -e 9.999732
N -t 11.012464 -n 4 -e 9.994894
N -t 11.012464 -n 10 -e 9.999724
N -t 11.012464 -n 5 -e 9.999732
N -t 11.012464 -n 1 -e 99.997800
N -t 11.012464 -n 3 -e 99.998680
N -t 11.012464 -n 9 -e 9.999732
N -t 11.012464 -n 6 -e 9.999732
N -t 11.012464 -n 0 -e 99.997800
N -t 11.012464 -n 11 -e 9.999732
N -t 11.013194 -n 13 -e 9.999725
N -t 11.013194 -n 12 -e 9.999725
N -t 11.013194 -n 8 -e 9.999696
N -t 11.013194 -n 7 -e 9.999725
N -t 11.013194 -n 10 -e 9.999716
N -t 11.013194 -n 4 -e 9.994886
N -t 11.013194 -n 1 -e 99.997648
N -t 11.013194 -n 5 -e 9.999725
N -t 11.013194 -n 3 -e 99.998589
N -t 11.013194 -n 0 -e 99.997648
N -t 11.013194 -n 9 -e 9.999725
N -t 11.013194 -n 6 -e 9.999725
N -t 11.013194 -n 11 -e 9.999725
r -t 11.013208800 -Hs 2 -Hd -2 -Ni 2 -Nx 5.58 -Ny 25.35 -Nz 0.00 -Ne 99.998094 -Nl AGT -Nw --- -Ma 13a -Md 2 -Ms 8 -Mt 800 -Is 8.2020 -Id 2.2020 -It udp -Il 32 -If 0 -Ii 0 -Iv 32 
N -t 11.013748 -n 13 -e 9.999716
N -t 11.013748 -n 12 -e 9.999716
N -t 11.013748 -n 8 -e 9.999688
N -t 11.013748 -n 7 -e 9.999716
N -t 11.013748 -n 10 -e 9.999708
N -t 11.013748 -n 4 -e 9.994878
N -t 11.013748 -n 1 -e 99.997472
N -t 11.013748 -n 5 -e 9.999716
N -t 11.013748 -n 3 -e 99.998483
N -t 11.013748 -n 0 -e 99.997472
N -t 11.013748 -n 9 -e 9.999716
N -t 11.013748 -n 6 -e 9.999716
N -t 11.013748 -n 11 -e 9.999716
N -t 11.014110 -n 1 -e 99.997320
N -t 11.014110 -n 0 -e 99.997320
N -t 11.014110 -n 7 -e 9.999709
N -t 11.014110 -n 8 -e 9.999680
N -t 11.014110 -n 13 -e 9.999709
N -t 11.014110 -n 2 -e 99.997791
N -t 11.014110 -n 4 -e 9.994871
N -t 11.014110 -n 12 -e 9.999709
N -t 11.014110 -n 3 -e 99.998392
N -t 11.014110 -n 9 -e 9.999709
N -t 11.014110 -n 5 -e 9.999709
N -t 11.014110 -n 6 -e 9.999709
N -t 11.014110 -n 11 -e 9.999709
N -t 11.014424 -n 13 -e 9.999692
N -t 11.014424 -n 12 -e 9.999692
N -t 11.014424 -n 8 -e 9.999664
N -t 11.014424 -n 7 -e 9.999692
N -t 11.014424 -n 10 -e 9.999680
N -t 11.014424 -n 4 -e 9.994854
N -t 11.014424 -n 1 -e 99.996976
N -t 11.014424 -n 5 -e 9.999692
N -t 11.014424 -n 3 -e 99.998186
N -t 11.014424 -n 0 -e 99.996976
N -t 11.014424 -n 9 -e 9.999692
N -t 11.014424 -n 6 -e 9.999692
N -t 11.014424 -n 11 -e 9.999692
N -t 11.015122 -n 1 -e 99.996824
N -t 11.015122 -n 0 -e 99.996824
N -t 11.015122 -n 7 -e 9.999685
N -t 11.015122 -n 8 -e 9.999657
N -t 11.015122 -n 13 -e 9.999685
N -t 11.015122 -n 2 -e 99.997287
N -t 11.015122 -n 4 -e 9.994847
N -t 11.015122 -n 12 -e 9.999685
N -t 11.015122 -n 3 -e 99.998094
N -t 11.015122 -n 9 -e 9.999685
N -t 11.015122 -n 5 -e 9.999685
N -t 11.015122 -n 6 -e 9.999685
N -t 11.015122 -n 11 -e 9.999685
N -t 11.015836 -n 1 -e 99.996648
N -t 11.015836 -n 0 -e 99.996648
N -t 11.015836 -n 7 -e 9.999677
N -t 11.015836 -n 8 -e 9.999648
N -t 11.015836 -n 13 -e 9.999677
N -t 11.015836 -n 2 -e 99.997181
N -t 11.015836 -n 4 -e 9.994838
N -t 11.015836 -n 12 -e 9.999677
N -t 11.015836 -n 3 -e 99.997989
N -t 11.015836 -n 9 -e 9.999677
N -t 11.015836 -n 5 -e 9.999677
N -t 11.015836 -n 6 -e 9.999677
N -t 11.015836 -n 11 -e 9.999677
N -t 11.016198 -n 13 -e 9.999669
N -t 11.016198 -n 12 -e 9.999669
N -t 11.016198 -n 8 -e 9.999641
N -t 11.016198 -n 7 -e 9.999669
N -t 11.016198 -n 10 -e 9.999650
N -t 11.016198 -n 4 -e 9.994831
N -t 11.016198 -n 1 -e 99.996496
N -t 11.016198 -n 5 -e 9.999669
N -t 11.016198 -n 3 -e 99.997898
N -t 11.016198 -n 0 -e 99.996496
N -t 11.016198 -n 9 -e 9.999669
N -t 11.016198 -n 6 -e 9.999669
N -t 11.016198 -n 11 -e 9.999669
N -t 11.016512 -n 1 -e 99.996136
N -t 11.016512 -n 0 -e 99.996136
N -t 11.016512 -n 7 -e 9.999652
N -t 11.016512 -n 8 -e 9.999624
N -t 11.016512 -n 13 -e 9.999652
N -t 11.016512 -n 2 -e 99.996783
N -t 11.016512 -n 4 -e 9.994814
N -t 11.016512 -n 12 -e 9.999652
N -t 11.016512 -n 3 -e 99.997682
N -t 11.016512 -n 9 -e 9.999652
N -t 11.016512 -n 5 -e 9.999652
N -t 11.016512 -n 6 -e 9.999652
N -t 11.016512 -n 11 -e 9.999652
N -t 11.017242 -n 13 -e 9.999645
N -t 11.017242 -n 12 -e 9.999645
N -t 11.017242 -n 8 -e 9.999616
N -t 11.017242 -n 7 -e 9.999645
N -t 11.017242 -n 10 -e 9.999616
N -t 11.017242 -n 4 -e 9.994807
N -t 11.017242 -n 1 -e 99.995984
N -t 11.017242 -n 5 -e 9.999645
N -t 11.017242 -n 3 -e 99.997590
N -t 11.017242 -n 0 -e 99.995984
N -t 11.017242 -n 9 -e 9.999645
N -t 11.017242 -n 6 -e 9.999645
N -t 11.017242 -n 11 -e 9.999645
r -t 11.017257143 -Hs 2 -Hd -2 -Ni 2 -Nx 5.58 -Ny 25.35 -Nz 0.00 -Ne 99.996601 -Nl AGT -Nw --- -Ma 13a -Md 2 -Ms a -Mt 800 -Is 10.2020 -Id 2.2020 -It udp -Il 32 -If 0 -Ii 1 -Iv 32 
s -t 11.207345255 -Hs 4 -Hd -2 -Ni 4 -Nx 19.87 -Ny 10.88 -Nz 0.00 -Ne 9.994807 -Nl AGT -Nw --- -Ma 0 -Md 0 -Ms 0 -Mt 0 -Is 4.2020 -Id 3.2020 -It udp -Il 32 -If 0 -Ii 2 -Iv 32 
r -t 11.207345255 -Hs 4 -Hd -2 -Ni 4 -Nx 19.87 -Ny 10.88 -Nz 0.00 -Ne 9.994807 -Nl RTR -Nw --- -Ma 0 -Md 0 -Ms 0 -Mt 0 -Is 4.2020 -Id 3.2020 -It udp -Il 32 -If 0 -Ii 2 -Iv 32 
s -t 11.207345255 -Hs 4 -Hd -2 -Ni 4 -Nx 19.87 -Ny 10.88 -Nz 0.00 -Ne 9.994807 -Nl RTR -Nw --- -Ma 0 -Md 0 -Ms 0 -Mt 0 -Is 4.2020 -Id 3.2020 -It udp -Il 32 -If 0 -Ii 2 -Iv 32 
N -t 11.207440 -n 3 -e 99.997384
N -t 11.207440 -n 5 -e 9.999628
N -t 11.207440 -n 9 -e 9.999628
N -t 11.207440 -n 6 -e 9.999628
N -t 11.207440 -n 7 -e 9.999628
N -t 11.207440 -n 8 -e 9.999600
N -t 11.207440 -n 11 -e 9.999628
N -t 11.207440 -n 1 -e 99.995640
N -t 11.207440 -n 13 -e 9.999628
N -t 11.207440 -n 10 -e 9.999600
N -t 11.207440 -n 2 -e 99.996393
N -t 11.207440 -n 12 -e 9.999628
N -t 11.207440 -n 0 -e 99.995640
N -t 11.208343 -n 5 -e 9.999620
N -t 11.208343 -n 9 -e 9.999620
N -t 11.208343 -n 4 -e 9.994773
N -t 11.208343 -n 6 -e 9.999620
N -t 11.208343 -n 11 -e 9.999620
N -t 11.208343 -n 7 -e 9.999620
N -t 11.208343 -n 8 -e 9.999591
N -t 11.208343 -n 1 -e 99.995464
N -t 11.208343 -n 13 -e 9.999620
N -t 11.208343 -n 10 -e 9.999591
N -t 11.208343 -n 2 -e 99.996288
N -t 11.208343 -n 12 -e 9.999620
N -t 11.208343 -n 0 -e 99.995464
N -t 11.208705 -n 3 -e 99.997082
N -t 11.208705 -n 5 -e 9.999612
N -t 11.208705 -n 9 -e 9.999612
N -t 11.208705 -n 6 -e 9.999612
N -t 11.208705 -n 7 -e 9.999612
N -t 11.208705 -n 8 -e 9.999584
N -t 11.208705 -n 11 -e 9.999612
N -t 11.208705 -n 1 -e 99.995312
N -t 11.208705 -n 13 -e 9.999612
N -t 11.208705 -n 10 -e 9.999584
N -t 11.208705 -n 2 -e 99.996196
N -t 11.208705 -n 12 -e 9.999612
N -t 11.208705 -n 0 -e 99.995312
N -t 11.209019 -n 5 -e 9.999596
N -t 11.209019 -n 9 -e 9.999596
N -t 11.209019 -n 4 -e 9.994746
N -t 11.209019 -n 6 -e 9.999596
N -t 11.209019 -n 11 -e 9.999596
N -t 11.209019 -n 7 -e 9.999596
N -t 11.209019 -n 8 -e 9.999568
N -t 11.209019 -n 1 -e 99.994968
N -t 11.209019 -n 13 -e 9.999596
N -t 11.209019 -n 10 -e 9.999568
N -t 11.209019 -n 2 -e 99.995990
N -t 11.209019 -n 12 -e 9.999596
N -t 11.209019 -n 0 -e 99.994968
s -t 11.209205172 -Hs 6 -Hd -2 -Ni 6 -Nx 24.31 -Ny 5.76 -Nz 0.00 -Ne 9.999596 -Nl AGT -Nw --- -Ma 0 -Md 0 -Ms 0 -Mt 0 -Is 6.2020 -Id 3.2020 -It udp -Il 32 -If 0 -Ii 3 -Iv 32 
r -t 11.209205172 -Hs 6 -Hd -2 -Ni 6 -Nx 24.31 -Ny 5.76 -Nz 0.00 -Ne 9.999596 -Nl RTR -Nw --- -Ma 0 -Md 0 -Ms 0 -Mt 0 -Is 6.2020 -Id 3.2020 -It udp -Il 32 -If 0 -Ii 3 -Iv 32 
s -t 11.209205172 -Hs 6 -Hd -2 -Ni 6 -Nx 24.31 -Ny 5.76 -Nz 0.00 -Ne 9.999596 -Nl RTR -Nw --- -Ma 0 -Md 0 -Ms 0 -Mt 0 -Is 6.2020 -Id 3.2020 -It udp -Il 32 -If 0 -Ii 3 -Iv 32 
N -t 11.209717 -n 3 -e 99.996578
N -t 11.209717 -n 5 -e 9.999589
N -t 11.209717 -n 9 -e 9.999589
N -t 11.209717 -n 6 -e 9.999589
N -t 11.209717 -n 7 -e 9.999589
N -t 11.209717 -n 8 -e 9.999560
N -t 11.209717 -n 11 -e 9.999589
N -t 11.209717 -n 1 -e 99.994816
N -t 11.209717 -n 13 -e 9.999589
N -t 11.209717 -n 10 -e 9.999560
N -t 11.209717 -n 2 -e 99.995899
N -t 11.209717 -n 12 -e 9.999589
N -t 11.209717 -n 0 -e 99.994816
N -t 11.210431 -n 9 -e 9.999572
N -t 11.210431 -n 3 -e 99.996371
N -t 11.210431 -n 11 -e 9.999572
N -t 11.210431 -n 4 -e 9.994718
N -t 11.210431 -n 5 -e 9.999572
N -t 11.210431 -n 7 -e 9.999572
N -t 11.210431 -n 8 -e 9.999544
N -t 11.210431 -n 1 -e 99.994472
N -t 11.210431 -n 13 -e 9.999572
N -t 11.210431 -n 10 -e 9.999544
N -t 11.210431 -n 0 -e 99.994472
N -t 11.210431 -n 2 -e 99.995692
N -t 11.210431 -n 12 -e 9.999572
N -t 11.211189 -n 3 -e 99.996266
N -t 11.211189 -n 5 -e 9.999564
N -t 11.211189 -n 9 -e 9.999564
N -t 11.211189 -n 6 -e 9.999555
N -t 11.211189 -n 7 -e 9.999564
N -t 11.211189 -n 8 -e 9.999535
N -t 11.211189 -n 11 -e 9.999564
N -t 11.211189 -n 1 -e 99.994296
N -t 11.211189 -n 13 -e 9.999564
N -t 11.211189 -n 10 -e 9.999535
N -t 11.211189 -n 2 -e 99.995587
N -t 11.211189 -n 12 -e 9.999564
N -t 11.211189 -n 0 -e 99.994296
N -t 11.211551 -n 5 -e 9.999556
N -t 11.211551 -n 9 -e 9.999556
N -t 11.211551 -n 4 -e 9.994698
N -t 11.211551 -n 6 -e 9.999548
N -t 11.211551 -n 11 -e 9.999556
N -t 11.211551 -n 7 -e 9.999556
N -t 11.211551 -n 8 -e 9.999528
N -t 11.211551 -n 1 -e 99.994144
N -t 11.211551 -n 13 -e 9.999556
N -t 11.211551 -n 10 -e 9.999528
N -t 11.211551 -n 2 -e 99.995496
N -t 11.211551 -n 12 -e 9.999556
N -t 11.211551 -n 0 -e 99.994144
N -t 11.211865 -n 3 -e 99.995867
N -t 11.211865 -n 5 -e 9.999539
N -t 11.211865 -n 9 -e 9.999539
N -t 11.211865 -n 6 -e 9.999531
N -t 11.211865 -n 7 -e 9.999539
N -t 11.211865 -n 8 -e 9.999511
N -t 11.211865 -n 11 -e 9.999539
N -t 11.211865 -n 1 -e 99.993784
N -t 11.211865 -n 13 -e 9.999539
N -t 11.211865 -n 10 -e 9.999511
N -t 11.211865 -n 2 -e 99.995280
N -t 11.211865 -n 12 -e 9.999539
N -t 11.211865 -n 0 -e 99.993784
N -t 11.212595 -n 5 -e 9.999532
N -t 11.212595 -n 9 -e 9.999532
N -t 11.212595 -n 4 -e 9.994665
N -t 11.212595 -n 6 -e 9.999524
N -t 11.212595 -n 11 -e 9.999532
N -t 11.212595 -n 7 -e 9.999532
N -t 11.212595 -n 8 -e 9.999503
N -t 11.212595 -n 1 -e 99.993632
N -t 11.212595 -n 13 -e 9.999532
N -t 11.212595 -n 10 -e 9.999503
N -t 11.212595 -n 2 -e 99.995188
N -t 11.212595 -n 12 -e 9.999532
N -t 11.212595 -n 0 -e 99.993632
r -t 11.212610394 -Hs 3 -Hd -2 -Ni 3 -Nx 23.83 -Ny 10.21 -Nz 0.00 -Ne 99.995685 -Nl AGT -Nw --- -Ma 13a -Md 3 -Ms 4 -Mt 800 -Is 4.2020 -Id 3.2020 -It udp -Il 32 -If 0 -Ii 2 -Iv 32 
N -t 11.213429 -n 5 -e 9.999523
N -t 11.213429 -n 9 -e 9.999523
N -t 11.213429 -n 4 -e 9.994657
N -t 11.213429 -n 6 -e 9.999515
N -t 11.213429 -n 11 -e 9.999523
N -t 11.213429 -n 7 -e 9.999523
N -t 11.213429 -n 8 -e 9.999495
N -t 11.213429 -n 1 -e 99.993456
N -t 11.213429 -n 13 -e 9.999523
N -t 11.213429 -n 10 -e 9.999495
N -t 11.213429 -n 2 -e 99.995083
N -t 11.213429 -n 12 -e 9.999523
N -t 11.213429 -n 0 -e 99.993456
N -t 11.213791 -n 9 -e 9.999516
N -t 11.213791 -n 3 -e 99.995382
N -t 11.213791 -n 11 -e 9.999516
N -t 11.213791 -n 4 -e 9.994650
N -t 11.213791 -n 5 -e 9.999516
N -t 11.213791 -n 7 -e 9.999516
N -t 11.213791 -n 8 -e 9.999488
N -t 11.213791 -n 1 -e 99.993304
N -t 11.213791 -n 13 -e 9.999516
N -t 11.213791 -n 10 -e 9.999488
N -t 11.213791 -n 0 -e 99.993304
N -t 11.213791 -n 2 -e 99.994992
N -t 11.213792 -n 12 -e 9.999516
N -t 11.214105 -n 5 -e 9.999500
N -t 11.214105 -n 9 -e 9.999500
N -t 11.214105 -n 4 -e 9.994633
N -t 11.214105 -n 6 -e 9.999488
N -t 11.214105 -n 11 -e 9.999500
N -t 11.214105 -n 7 -e 9.999500
N -t 11.214105 -n 8 -e 9.999471
N -t 11.214105 -n 1 -e 99.992960
N -t 11.214105 -n 13 -e 9.999500
N -t 11.214105 -n 10 -e 9.999471
N -t 11.214106 -n 2 -e 99.994785
N -t 11.214106 -n 12 -e 9.999500
N -t 11.214106 -n 0 -e 99.992960
N -t 11.214803 -n 9 -e 9.999492
N -t 11.214803 -n 3 -e 99.994878
N -t 11.214803 -n 11 -e 9.999492
N -t 11.214803 -n 4 -e 9.994626
N -t 11.214803 -n 5 -e 9.999492
N -t 11.214803 -n 7 -e 9.999492
N -t 11.214804 -n 8 -e 9.999464
N -t 11.214804 -n 1 -e 99.992808
N -t 11.214804 -n 13 -e 9.999492
N -t 11.214804 -n 10 -e 9.999464
N -t 11.214804 -n 0 -e 99.992808
N -t 11.214804 -n 2 -e 99.994694
N -t 11.214804 -n 12 -e 9.999492
N -t 11.215477 -n 9 -e 9.999484
N -t 11.215477 -n 3 -e 99.994772
N -t 11.215477 -n 11 -e 9.999484
N -t 11.215477 -n 4 -e 9.994617
N -t 11.215477 -n 5 -e 9.999484
N -t 11.215477 -n 7 -e 9.999484
N -t 11.215478 -n 8 -e 9.999455
N -t 11.215478 -n 1 -e 99.992632
N -t 11.215478 -n 13 -e 9.999484
N -t 11.215478 -n 10 -e 9.999455
N -t 11.215478 -n 0 -e 99.992632
N -t 11.215478 -n 2 -e 99.994588
N -t 11.215478 -n 12 -e 9.999484
N -t 11.215839 -n 5 -e 9.999477
N -t 11.215839 -n 9 -e 9.999477
N -t 11.215839 -n 4 -e 9.994610
N -t 11.215839 -n 6 -e 9.999457
N -t 11.215839 -n 11 -e 9.999477
N -t 11.215839 -n 7 -e 9.999477
N -t 11.215840 -n 8 -e 9.999448
N -t 11.215840 -n 1 -e 99.992480
N -t 11.215840 -n 13 -e 9.999477
N -t 11.215840 -n 10 -e 9.999448
N -t 11.215840 -n 2 -e 99.994497
N -t 11.215840 -n 12 -e 9.999477
N -t 11.215840 -n 0 -e 99.992480
N -t 11.216153 -n 9 -e 9.999459
N -t 11.216153 -n 3 -e 99.994374
N -t 11.216153 -n 11 -e 9.999459
N -t 11.216153 -n 4 -e 9.994593
N -t 11.216153 -n 5 -e 9.999459
N -t 11.216154 -n 7 -e 9.999459
N -t 11.216154 -n 8 -e 9.999431
N -t 11.216154 -n 1 -e 99.992120
N -t 11.216154 -n 13 -e 9.999459
N -t 11.216154 -n 10 -e 9.999431
N -t 11.216154 -n 0 -e 99.992120
N -t 11.216154 -n 2 -e 99.994281
N -t 11.216154 -n 12 -e 9.999459
N -t 11.216883 -n 5 -e 9.999452
N -t 11.216883 -n 9 -e 9.999452
N -t 11.216883 -n 4 -e 9.994585
N -t 11.216883 -n 6 -e 9.999424
N -t 11.216884 -n 11 -e 9.999452
N -t 11.216884 -n 7 -e 9.999452
N -t 11.216884 -n 8 -e 9.999424
N -t 11.216884 -n 1 -e 99.991968
N -t 11.216884 -n 13 -e 9.999452
N -t 11.216884 -n 10 -e 9.999424
N -t 11.216884 -n 2 -e 99.994190
N -t 11.216884 -n 12 -e 9.999452
N -t 11.216884 -n 0 -e 99.991968
r -t 11.216898483 -Hs 3 -Hd -2 -Ni 3 -Nx 23.83 -Ny 10.21 -Nz 0.00 -Ne 99.994191 -Nl AGT -Nw --- -Ma 13a -Md 3 -Ms 6 -Mt 800 -Is 6.2020 -Id 3.2020 -It udp -Il 32 -If 0 -Ii 3 -Iv 32 
s -t 11.357628839 -Hs 7 -Hd -2 -Ni 7 -Nx 12.61 -Ny 13.45 -Nz 0.00 -Ne 9.999452 -Nl AGT -Nw --- -Ma 0 -Md 0 -Ms 0 -Mt 0 -Is 7.2020 -Id 3.2020 -It udp -Il 32 -If 0 -Ii 4 -Iv 32 
r -t 11.357628839 -Hs 7 -Hd -2 -Ni 7 -Nx 12.61 -Ny 13.45 -Nz 0.00 -Ne 9.999452 -Nl RTR -Nw --- -Ma 0 -Md 0 -Ms 0 -Mt 0 -Is 7.2020 -Id 3.2020 -It udp -Il 32 -If 0 -Ii 4 -Iv 32 
s -t 11.357628839 -Hs 7 -Hd -2 -Ni 7 -Nx 12.61 -Ny 13.45 -Nz 0.00 -Ne 9.999452 -Nl RTR -Nw --- -Ma 0 -Md 0 -Ms 0 -Mt 0 -Is 7.2020 -Id 3.2020 -It udp -Il 32 -If 0 -Ii 4 -Iv 32 
N -t 11.357704 -n 8 -e 9.999407
N -t 11.357704 -n 4 -e 9.994569
N -t 11.357704 -n 13 -e 9.999435
N -t 11.357704 -n 5 -e 9.999435
N -t 11.357704 -n 1 -e 99.991624
N -t 11.357704 -n 3 -e 99.993984
N -t 11.357704 -n 10 -e 9.999407
N -t 11.357704 -n 9 -e 9.999435
N -t 11.357704 -n 2 -e 99.993984
N -t 11.357704 -n 6 -e 9.999407
N -t 11.357704 -n 12 -e 9.999435
N -t 11.357704 -n 0 -e 99.991624
N -t 11.357704 -n 11 -e 9.999435
N -t 11.358887 -n 5 -e 9.999427
N -t 11.358887 -n 9 -e 9.999427
N -t 11.358887 -n 4 -e 9.994560
N -t 11.358887 -n 6 -e 9.999399
N -t 11.358887 -n 11 -e 9.999427
N -t 11.358887 -n 7 -e 9.999419
N -t 11.358887 -n 8 -e 9.999399
N -t 11.358887 -n 1 -e 99.991448
N -t 11.358887 -n 13 -e 9.999427
N -t 11.358887 -n 10 -e 9.999399
N -t 11.358887 -n 2 -e 99.993878
N -t 11.358887 -n 12 -e 9.999427
N -t 11.358887 -n 0 -e 99.991448
N -t 11.359249 -n 8 -e 9.999391
N -t 11.359249 -n 4 -e 9.994553
N -t 11.359249 -n 13 -e 9.999420
N -t 11.359249 -n 5 -e 9.999420
N -t 11.359249 -n 1 -e 99.991296
N -t 11.359249 -n 3 -e 99.993682
N -t 11.359249 -n 10 -e 9.999391
N -t 11.359249 -n 9 -e 9.999420
N -t 11.359249 -n 2 -e 99.993787
N -t 11.359249 -n 6 -e 9.999391
N -t 11.359249 -n 12 -e 9.999420
N -t 11.359249 -n 0 -e 99.991296
N -t 11.359249 -n 11 -e 9.999420
N -t 11.359563 -n 5 -e 9.999403
N -t 11.359563 -n 9 -e 9.999403
N -t 11.359563 -n 4 -e 9.994537
N -t 11.359563 -n 6 -e 9.999375
N -t 11.359563 -n 11 -e 9.999403
N -t 11.359563 -n 7 -e 9.999391
N -t 11.359563 -n 8 -e 9.999375
N -t 11.359563 -n 1 -e 99.990952
N -t 11.359563 -n 13 -e 9.999403
N -t 11.359563 -n 10 -e 9.999375
N -t 11.359563 -n 2 -e 99.993580
N -t 11.359563 -n 12 -e 9.999403
N -t 11.359563 -n 0 -e 99.990952
N -t 11.360261 -n 8 -e 9.999367
N -t 11.360261 -n 4 -e 9.994529
N -t 11.360261 -n 13 -e 9.999396
N -t 11.360261 -n 5 -e 9.999396
N -t 11.360261 -n 1 -e 99.990800
N -t 11.360261 -n 3 -e 99.993178
N -t 11.360261 -n 10 -e 9.999367
N -t 11.360261 -n 9 -e 9.999396
N -t 11.360261 -n 2 -e 99.993489
N -t 11.360261 -n 6 -e 9.999367
N -t 11.360261 -n 12 -e 9.999396
N -t 11.360261 -n 0 -e 99.990800
N -t 11.360261 -n 11 -e 9.999396
N -t 11.360795 -n 8 -e 9.999359
N -t 11.360795 -n 4 -e 9.994521
N -t 11.360795 -n 13 -e 9.999387
N -t 11.360795 -n 5 -e 9.999387
N -t 11.360795 -n 1 -e 99.990624
N -t 11.360795 -n 3 -e 99.993072
N -t 11.360795 -n 10 -e 9.999359
N -t 11.360795 -n 9 -e 9.999387
N -t 11.360795 -n 2 -e 99.993384
N -t 11.360795 -n 6 -e 9.999359
N -t 11.360795 -n 12 -e 9.999387
N -t 11.360795 -n 0 -e 99.990624
N -t 11.360795 -n 11 -e 9.999387
N -t 11.361157 -n 5 -e 9.999380
N -t 11.361157 -n 9 -e 9.999380
N -t 11.361157 -n 4 -e 9.994514
N -t 11.361157 -n 6 -e 9.999352
N -t 11.361157 -n 11 -e 9.999380
N -t 11.361157 -n 7 -e 9.999360
N -t 11.361157 -n 8 -e 9.999352
N -t 11.361157 -n 1 -e 99.990472
N -t 11.361157 -n 13 -e 9.999380
N -t 11.361157 -n 10 -e 9.999352
N -t 11.361157 -n 2 -e 99.993292
N -t 11.361157 -n 12 -e 9.999380
N -t 11.361157 -n 0 -e 99.990472
N -t 11.361471 -n 8 -e 9.999334
N -t 11.361471 -n 4 -e 9.994496
N -t 11.361471 -n 13 -e 9.999363
N -t 11.361471 -n 5 -e 9.999363
N -t 11.361471 -n 1 -e 99.990112
N -t 11.361471 -n 3 -e 99.992674
N -t 11.361471 -n 10 -e 9.999334
N -t 11.361471 -n 9 -e 9.999363
N -t 11.361471 -n 2 -e 99.993076
N -t 11.361471 -n 6 -e 9.999334
N -t 11.361471 -n 12 -e 9.999363
N -t 11.361471 -n 0 -e 99.990112
N -t 11.361471 -n 11 -e 9.999363
N -t 11.362201 -n 5 -e 9.999356
N -t 11.362201 -n 9 -e 9.999356
N -t 11.362201 -n 4 -e 9.994489
N -t 11.362201 -n 6 -e 9.999327
N -t 11.362201 -n 11 -e 9.999356
N -t 11.362201 -n 7 -e 9.999327
N -t 11.362201 -n 8 -e 9.999327
N -t 11.362201 -n 1 -e 99.989960
N -t 11.362201 -n 13 -e 9.999356
N -t 11.362201 -n 10 -e 9.999327
N -t 11.362201 -n 2 -e 99.992985
N -t 11.362201 -n 12 -e 9.999356
N -t 11.362201 -n 0 -e 99.989960
r -t 11.362216111 -Hs 3 -Hd -2 -Ni 3 -Nx 23.83 -Ny 10.21 -Nz 0.00 -Ne 99.992491 -Nl AGT -Nw --- -Ma 13a -Md 3 -Ms 7 -Mt 800 -Is 7.2020 -Id 3.2020 -It udp -Il 32 -If 0 -Ii 4 -Iv 32 
s -t 11.398615883 -Hs 12 -Hd -2 -Ni 12 -Nx 9.35 -Ny 29.47 -Nz 0.00 -Ne 9.999356 -Nl AGT -Nw --- -Ma 0 -Md 0 -Ms 0 -Mt 0 -Is 12.2020 -Id 2.2020 -It udp -Il 32 -If 0 -Ii 5 -Iv 32 
r -t 11.398615883 -Hs 12 -Hd -2 -Ni 12 -Nx 9.35 -Ny 29.47 -Nz 0.00 -Ne 9.999356 -Nl RTR -Nw --- -Ma 0 -Md 0 -Ms 0 -Mt 0 -Is 12.2020 -Id 2.2020 -It udp -Il 32 -If 0 -Ii 5 -Iv 32 
s -t 11.398615883 -Hs 12 -Hd -2 -Ni 12 -Nx 9.35 -Ny 29.47 -Nz 0.00 -Ne 9.999356 -Nl RTR -Nw --- -Ma 0 -Md 0 -Ms 0 -Mt 0 -Is 12.2020 -Id 2.2020 -It udp -Il 32 -If 0 -Ii 5 -Iv 32 
N -t 11.399211 -n 2 -e 99.992779
N -t 11.399211 -n 13 -e 9.999339
N -t 11.399211 -n 8 -e 9.999311
N -t 11.399211 -n 7 -e 9.999311
N -t 11.399211 -n 4 -e 9.994472
N -t 11.399211 -n 5 -e 9.999339
N -t 11.399211 -n 10 -e 9.999311
N -t 11.399211 -n 3 -e 99.992284
N -t 11.399211 -n 1 -e 99.989616
N -t 11.399211 -n 9 -e 9.999339
N -t 11.399211 -n 6 -e 9.999311
N -t 11.399211 -n 0 -e 99.989616
N -t 11.399211 -n 11 -e 9.999339
N -t 11.399994 -n 13 -e 9.999331
N -t 11.399994 -n 12 -e 9.999322
N -t 11.399994 -n 8 -e 9.999302
N -t 11.399994 -n 7 -e 9.999302
N -t 11.399994 -n 10 -e 9.999302
N -t 11.399994 -n 4 -e 9.994464
N -t 11.399994 -n 1 -e 99.989440
N -t 11.399994 -n 5 -e 9.999331
N -t 11.399994 -n 3 -e 99.992179
N -t 11.399994 -n 0 -e 99.989440
N -t 11.399994 -n 9 -e 9.999331
N -t 11.399994 -n 6 -e 9.999302
N -t 11.399994 -n 11 -e 9.999331
N -t 11.400356 -n 2 -e 99.992476
N -t 11.400356 -n 13 -e 9.999323
N -t 11.400356 -n 8 -e 9.999295
N -t 11.400356 -n 7 -e 9.999295
N -t 11.400356 -n 4 -e 9.994457
N -t 11.400356 -n 5 -e 9.999323
N -t 11.400356 -n 10 -e 9.999295
N -t 11.400356 -n 3 -e 99.992088
N -t 11.400356 -n 1 -e 99.989288
N -t 11.400356 -n 9 -e 9.999323
N -t 11.400356 -n 6 -e 9.999295
N -t 11.400356 -n 0 -e 99.989288
N -t 11.400356 -n 11 -e 9.999323
N -t 11.400670 -n 13 -e 9.999307
N -t 11.400670 -n 12 -e 9.999295
N -t 11.400670 -n 8 -e 9.999278
N -t 11.400670 -n 7 -e 9.999278
N -t 11.400670 -n 10 -e 9.999278
N -t 11.400670 -n 4 -e 9.994440
N -t 11.400670 -n 1 -e 99.988944
N -t 11.400670 -n 5 -e 9.999307
N -t 11.400670 -n 3 -e 99.991881
N -t 11.400670 -n 0 -e 99.988944
N -t 11.400670 -n 9 -e 9.999307
N -t 11.400670 -n 6 -e 9.999278
N -t 11.400670 -n 11 -e 9.999307
N -t 11.401368 -n 2 -e 99.991972
N -t 11.401368 -n 13 -e 9.999300
N -t 11.401368 -n 8 -e 9.999271
N -t 11.401368 -n 7 -e 9.999271
N -t 11.401368 -n 4 -e 9.994433
N -t 11.401368 -n 5 -e 9.999300
N -t 11.401368 -n 10 -e 9.999271
N -t 11.401368 -n 3 -e 99.991790
N -t 11.401368 -n 1 -e 99.988792
N -t 11.401368 -n 9 -e 9.999300
N -t 11.401368 -n 6 -e 9.999271
N -t 11.401368 -n 0 -e 99.988792
N -t 11.401368 -n 11 -e 9.999300
N -t 11.402042 -n 2 -e 99.991867
N -t 11.402042 -n 13 -e 9.999291
N -t 11.402042 -n 8 -e 9.999263
N -t 11.402042 -n 7 -e 9.999263
N -t 11.402042 -n 4 -e 9.994424
N -t 11.402042 -n 5 -e 9.999291
N -t 11.402042 -n 10 -e 9.999263
N -t 11.402042 -n 3 -e 99.991684
N -t 11.402042 -n 1 -e 99.988616
N -t 11.402042 -n 9 -e 9.999291
N -t 11.402042 -n 6 -e 9.999263
N -t 11.402042 -n 0 -e 99.988616
N -t 11.402042 -n 11 -e 9.999291
N -t 11.402404 -n 13 -e 9.999284
N -t 11.402404 -n 12 -e 9.999264
N -t 11.402404 -n 8 -e 9.999255
N -t 11.402404 -n 7 -e 9.999255
N -t 11.402404 -n 10 -e 9.999255
N -t 11.402404 -n 4 -e 9.994417
N -t 11.402404 -n 1 -e 99.988464
N -t 11.402404 -n 5 -e 9.999284
N -t 11.402404 -n 3 -e 99.991593
N -t 11.402404 -n 0 -e 99.988464
N -t 11.402404 -n 9 -e 9.999284
N -t 11.402404 -n 6 -e 9.999255
N -t 11.402404 -n 11 -e 9.999284
N -t 11.402718 -n 2 -e 99.991468
N -t 11.402718 -n 13 -e 9.999266
N -t 11.402718 -n 8 -e 9.999238
N -t 11.402718 -n 7 -e 9.999238
N -t 11.402718 -n 4 -e 9.994400
N -t 11.402718 -n 5 -e 9.999266
N -t 11.402718 -n 10 -e 9.999238
N -t 11.402718 -n 3 -e 99.991377
N -t 11.402718 -n 1 -e 99.988104
N -t 11.402718 -n 9 -e 9.999266
N -t 11.402718 -n 6 -e 9.999238
N -t 11.402718 -n 0 -e 99.988104
N -t 11.402718 -n 11 -e 9.999266
N -t 11.403448 -n 13 -e 9.999259
N -t 11.403448 -n 12 -e 9.999231
N -t 11.403448 -n 8 -e 9.999231
N -t 11.403448 -n 7 -e 9.999231
N -t 11.403448 -n 10 -e 9.999231
N -t 11.403448 -n 4 -e 9.994393
N -t 11.403448 -n 1 -e 99.987952
N -t 11.403448 -n 5 -e 9.999259
N -t 11.403448 -n 3 -e 99.991286
N -t 11.403448 -n 0 -e 99.987952
N -t 11.403448 -n 9 -e 9.999259
N -t 11.403448 -n 6 -e 9.999231
N -t 11.403448 -n 11 -e 9.999259
r -t 11.403463013 -Hs 2 -Hd -2 -Ni 2 -Nx 5.58 -Ny 25.35 -Nz 0.00 -Ne 99.991286 -Nl AGT -Nw --- -Ma 13a -Md 2 -Ms c -Mt 800 -Is 12.2020 -Id 2.2020 -It udp -Il 32 -If 0 -Ii 5 -Iv 32 
s -t 11.478970418 -Hs 13 -Hd -2 -Ni 13 -Nx 8.07 -Ny 22.29 -Nz 0.00 -Ne 9.999259 -Nl AGT -Nw --- -Ma 0 -Md 0 -Ms 0 -Mt 0 -Is 13.2020 -Id 2.2020 -It udp -Il 32 -If 0 -Ii 6 -Iv 32 
r -t 11.478970418 -Hs 13 -Hd -2 -Ni 13 -Nx 8.07 -Ny 22.29 -Nz 0.00 -Ne 9.999259 -Nl RTR -Nw --- -Ma 0 -Md 0 -Ms 0 -Mt 0 -Is 13.2020 -Id 2.2020 -It udp -Il 32 -If 0 -Ii 6 -Iv 32 
s -t 11.478970418 -Hs 13 -Hd -2 -Ni 13 -Nx 8.07 -Ny 22.29 -Nz 0.00 -Ne 9.999259 -Nl RTR -Nw --- -Ma 0 -Md 0 -Ms 0 -Mt 0 -Is 13.2020 -Id 2.2020 -It udp -Il 32 -If 0 -Ii 6 -Iv 32 
N -t 11.479165 -n 2 -e 99.991079
N -t 11.479165 -n 8 -e 9.999214
N -t 11.479165 -n 12 -e 9.999214
N -t 11.479165 -n 7 -e 9.999214
N -t 11.479165 -n 10 -e 9.999214
N -t 11.479165 -n 4 -e 9.994376
N -t 11.479165 -n 1 -e 99.987608
N -t 11.479165 -n 5 -e 9.999243
N -t 11.479165 -n 3 -e 99.991080
N -t 11.479165 -n 9 -e 9.999243
N -t 11.479165 -n 6 -e 9.999214
N -t 11.479165 -n 0 -e 99.987608
N -t 11.479166 -n 11 -e 9.999243
N -t 11.480188 -n 13 -e 9.999226
N -t 11.480188 -n 12 -e 9.999206
N -t 11.480188 -n 8 -e 9.999206
N -t 11.480188 -n 7 -e 9.999206
N -t 11.480188 -n 10 -e 9.999206
N -t 11.480188 -n 4 -e 9.994368
N -t 11.480188 -n 1 -e 99.987432
N -t 11.480189 -n 5 -e 9.999234
N -t 11.480189 -n 3 -e 99.990974
N -t 11.480189 -n 0 -e 99.987432
N -t 11.480189 -n 9 -e 9.999234
N -t 11.480189 -n 6 -e 9.999206
N -t 11.480189 -n 11 -e 9.999234
N -t 11.480550 -n 2 -e 99.990776
N -t 11.480550 -n 8 -e 9.999199
N -t 11.480550 -n 12 -e 9.999199
N -t 11.480550 -n 7 -e 9.999199
N -t 11.480550 -n 10 -e 9.999199
N -t 11.480550 -n 4 -e 9.994360
N -t 11.480551 -n 1 -e 99.987280
N -t 11.480551 -n 5 -e 9.999227
N -t 11.480551 -n 3 -e 99.990883
N -t 11.480551 -n 9 -e 9.999227
N -t 11.480551 -n 6 -e 9.999199
N -t 11.480551 -n 0 -e 99.987280
N -t 11.480551 -n 11 -e 9.999227
N -t 11.480864 -n 13 -e 9.999199
N -t 11.480864 -n 12 -e 9.999182
N -t 11.480864 -n 8 -e 9.999182
N -t 11.480865 -n 7 -e 9.999182
N -t 11.480865 -n 10 -e 9.999182
N -t 11.480865 -n 4 -e 9.994344
N -t 11.480865 -n 1 -e 99.986936
N -t 11.480865 -n 5 -e 9.999210
N -t 11.480865 -n 3 -e 99.990676
N -t 11.480865 -n 0 -e 99.986936
N -t 11.480865 -n 9 -e 9.999210
N -t 11.480865 -n 6 -e 9.999182
N -t 11.480865 -n 11 -e 9.999210
N -t 11.481562 -n 2 -e 99.990272
N -t 11.481562 -n 8 -e 9.999175
N -t 11.481562 -n 12 -e 9.999175
N -t 11.481563 -n 7 -e 9.999175
N -t 11.481563 -n 10 -e 9.999175
N -t 11.481563 -n 4 -e 9.994337
N -t 11.481563 -n 1 -e 99.986784
N -t 11.481563 -n 5 -e 9.999203
N -t 11.481563 -n 3 -e 99.990585
N -t 11.481563 -n 9 -e 9.999203
N -t 11.481563 -n 6 -e 9.999175
N -t 11.481563 -n 0 -e 99.986784
N -t 11.481563 -n 11 -e 9.999203
N -t 11.482116 -n 2 -e 99.990167
N -t 11.482116 -n 8 -e 9.999166
N -t 11.482116 -n 12 -e 9.999166
N -t 11.482117 -n 7 -e 9.999166
N -t 11.482117 -n 10 -e 9.999166
N -t 11.482117 -n 4 -e 9.994328
N -t 11.482117 -n 1 -e 99.986608