s -t 11.006531555 -Hs 7 -Hd -2 -Ni 7 -Nx 10.76 -Ny 8.93 -Nz 0.00 -Ne 9.999837 -Nl AGT -Nw --- -Ma 0 -Md 0 -Ms 0 -Mt 0 -Is 7.2020 -Id 1.2020 -It udp -Il 32 -If 0 -Ii 0 -Iv 32 
r -t 11.006531555 -Hs 7 -Hd -2 -Ni 7 -Nx 10.76 -Ny 8.93 -Nz 0.00 -Ne 9.999837 -Nl RTR -Nw --- -Ma 0 -Md 0 -Ms 0 -Mt 0 -Is 7.2020 -Id 1.2020 -It udp -Il 32 -If 0 -Ii 0 -Iv 32 
s -t 11.006531555 -Hs 7 -Hd -2 -Ni 7 -Nx 10.76 -Ny 8.93 -Nz 0.00 -Ne 9.999837 -Nl RTR -Nw --- -Ma 0 -Md 0 -Ms 0 -Mt 0 -Is 7.2020 -Id 1.2020 -It udp -Il 32 -If 0 -Ii 0 -Iv 32 
N -t 11.007047 -n 9 -e 9.999821
N -t 11.007047 -n 2 -e 9.994982
N -t 11.007047 -n 1 -e 99.999656
N -t 11.007047 -n 3 -e 9.999821
N -t 11.007047 -n 5 -e 9.999821
N -t 11.007047 -n 4 -e 9.999821
N -t 11.007047 -n 0 -e 99.999656
N -t 11.007047 -n 10 -e 9.999821
N -t 11.007047 -n 8 -e 9.999821
N -t 11.007047 -n 6 -e 9.999821
N -t 11.007047 -n 11 -e 9.999821
N -t 11.008350 -n 9 -e 9.999813
N -t 11.008350 -n 7 -e 9.999804
N -t 11.008350 -n 0 -e 99.999480
N -t 11.008350 -n 2 -e 9.994974
N -t 11.008350 -n 3 -e 9.999813
N -t 11.008350 -n 5 -e 9.999813
N -t 11.008350 -n 4 -e 9.999813
N -t 11.008350 -n 8 -e 9.999813
N -t 11.008350 -n 10 -e 9.999813
N -t 11.008350 -n 6 -e 9.999813
N -t 11.008350 -n 11 -e 9.999813
N -t 11.008712 -n 9 -e 9.999805
N -t 11.008712 -n 2 -e 9.994967
N -t 11.008712 -n 1 -e 99.999328
N -t 11.008712 -n 3 -e 9.999805
N -t 11.008712 -n 5 -e 9.999805
N -t 11.008712 -n 4 -e 9.999805
N -t 11.008712 -n 0 -e 99.999328
N -t 11.008712 -n 10 -e 9.999805
N -t 11.008712 -n 8 -e 9.999805
N -t 11.008712 -n 6 -e 9.999805
N -t 11.008712 -n 11 -e 9.999805
N -t 11.009026 -n 9 -e 9.999789
N -t 11.009026 -n 7 -e 9.999777
N -t 11.009026 -n 0 -e 99.998984
N -t 11.009026 -n 2 -e 9.994950
N -t 11.009026 -n 3 -e 9.999789
N -t 11.009026 -n 5 -e 9.999789
N -t 11.009026 -n 4 -e 9.999789
N -t 11.009026 -n 8 -e 9.999789
N -t 11.009026 -n 10 -e 9.999789
N -t 11.009026 -n 6 -e 9.999789
N -t 11.009026 -n 11 -e 9.999789
N -t 11.009724 -n 9 -e 9.999781
N -t 11.009724 -n 2 -e 9.994943
N -t 11.009724 -n 1 -e 99.998832
N -t 11.009724 -n 3 -e 9.999781
N -t 11.009724 -n 5 -e 9.999781
N -t 11.009724 -n 4 -e 9.999781
N -t 11.009724 -n 0 -e 99.998832
N -t 11.009724 -n 10 -e 9.999781
N -t 11.009724 -n 8 -e 9.999781
N -t 11.009724 -n 6 -e 9.999781
N -t 11.009724 -n 11 -e 9.999781
N -t 11.010378 -n 9 -e 9.999773
N -t 11.010378 -n 2 -e 9.994934
N -t 11.010378 -n 1 -e 99.998656
N -t 11.010378 -n 3 -e 9.999773
N -t 11.010378 -n 5 -e 9.999773
N -t 11.010378 -n 4 -e 9.999773
N -t 11.010378 -n 0 -e 99.998656
N -t 11.010378 -n 10 -e 9.999773
N -t 11.010378 -n 8 -e 9.999773
N -t 11.010378 -n 6 -e 9.999773
N -t 11.010378 -n 11 -e 9.999773
N -t 11.010740 -n 9 -e 9.999766
N -t 11.010740 -n 7 -e 9.999746
N -t 11.010740 -n 0 -e 99.998504
N -t 11.010740 -n 2 -e 9.994927
N -t 11.010740 -n 3 -e 9.999766
N -t 11.010740 -n 5 -e 9.999766
N -t 11.010740 -n 4 -e 9.999766
N -t 11.010740 -n 8 -e 9.999766
N -t 11.010740 -n 10 -e 9.999766
N -t 11.010740 -n 6 -e 9.999766
N -t 11.010740 -n 11 -e 9.999766
N -t 11.011054 -n 9 -e 9.999748
N -t 11.011054 -n 2 -e 9.994910
N -t 11.011054 -n 1 -e 99.998144
N -t 11.011054 -n 3 -e 9.999748
N -t 11.011054 -n 5 -e 9.999748
N -t 11.011054 -n 4 -e 9.999748
N -t 11.011054 -n 0 -e 99.998144
N -t 11.011054 -n 10 -e 9.999748
N -t 11.011054 -n 8 -e 9.999748
N -t 11.011054 -n 6 -e 9.999748
N -t 11.011054 -n 11 -e 9.999748
N -t 11.011784 -n 9 -e 9.999741
N -t 11.011784 -n 7 -e 9.999713
N -t 11.011784 -n 0 -e 99.997992
N -t 11.011784 -n 2 -e 9.994903
N -t 11.011784 -n 3 -e 9.999741
N -t 11.011784 -n 5 -e 9.999741
N -t 11.011784 -n 4 -e 9.999741
N -t 11.011784 -n 8 -e 9.999741
N -t 11.011784 -n 10 -e 9.999741
N -t 11.011784 -n 6 -e 9.999741
N -t 11.011784 -n 11 -e 9.999741
r -t 11.011798718 -Hs 1 -Hd -2 -Ni 1 -Nx 5.00 -Ny 5.00 -Nz 0.00 -Ne 99.997992 -Nl AGT -Nw --- -Ma 13a -Md 1 -Ms 7 -Mt 800 -Is 7.2020 -Id 1.2020 -It udp -Il 32 -If 0 -Ii 0 -Iv 32 
s -t 11.226824053 -Hs 3 -Hd -2 -Ni 3 -Nx 10.10 -Ny 16.51 -Nz 0.00 -Ne 9.999741 -Nl AGT -Nw --- -Ma 0 -Md 0 -Ms 0 -Mt 0 -Is 3.2020 -Id 1.2020 -It udp -Il 32 -If 0 -Ii 1 -Iv 32 
r -t 11.226824053 -Hs 3 -Hd -2 -Ni 3 -Nx 10.10 -Ny 16.51 -Nz 0.00 -Ne 9.999741 -Nl RTR -Nw --- -Ma 0 -Md 0 -Ms 0 -Mt 0 -Is 3.2020 -Id 1.2020 -It udp -Il 32 -If 0 -Ii 1 -Iv 32 
s -t 11.226824053 -Hs 3 -Hd -2 -Ni 3 -Nx 10.10 -Ny 16.51 -Nz 0.00 -Ne 9.999741 -Nl RTR -Nw --- -Ma 0 -Md 0 -Ms 0 -Mt 0 -Is 3.2020 -Id 1.2020 -It udp -Il 32 -If 0 -Ii 1 -Iv 32 
N -t 11.227039 -n 5 -e 9.999725
N -t 11.227039 -n 9 -e 9.999725
N -t 11.227039 -n 2 -e 9.994886
N -t 11.227039 -n 7 -e 9.999696
N -t 11.227039 -n 10 -e 9.999725
N -t 11.227039 -n 1 -e 99.997648
N -t 11.227039 -n 4 -e 9.999725
N -t 11.227039 -n 11 -e 9.999725
N -t 11.227039 -n 6 -e 9.999725
N -t 11.227039 -n 8 -e 9.999725
N -t 11.227039 -n 0 -e 99.997648
N -t 11.228022 -n 9 -e 9.999716
N -t 11.228022 -n 7 -e 9.999688
N -t 11.228022 -n 0 -e 99.997472
N -t 11.228022 -n 2 -e 9.994878
N -t 11.228022 -n 3 -e 9.999708
N -t 11.228022 -n 5 -e 9.999716
N -t 11.228022 -n 4 -e 9.999716
N -t 11.228022 -n 8 -e 9.999716
N -t 11.228022 -n 10 -e 9.999716
N -t 11.228022 -n 6 -e 9.999716
N -t 11.228022 -n 11 -e 9.999716
N -t 11.228384 -n 5 -e 9.999709
N -t 11.228384 -n 9 -e 9.999709
N -t 11.228384 -n 2 -e 9.994870
N -t 11.228384 -n 7 -e 9.999680
N -t 11.228384 -n 10 -e 9.999709
N -t 11.228384 -n 1 -e 99.997320
N -t 11.228384 -n 4 -e 9.999709
N -t 11.228384 -n 11 -e 9.999709
N -t 11.228384 -n 6 -e 9.999709
N -t 11.228384 -n 8 -e 9.999709
N -t 11.228384 -n 0 -e 99.997320
N -t 11.228698 -n 9 -e 9.999692
N -t 11.228698 -n 7 -e 9.999664
N -t 11.228698 -n 0 -e 99.996976
N -t 11.228698 -n 2 -e 9.994854
N -t 11.228698 -n 3 -e 9.999680
N -t 11.228698 -n 5 -e 9.999692
N -t 11.228698 -n 4 -e 9.999692
N -t 11.228698 -n 8 -e 9.999692
N -t 11.228698 -n 10 -e 9.999692
N -t 11.228698 -n 6 -e 9.999692
N -t 11.228698 -n 11 -e 9.999692
N -t 11.229396 -n 5 -e 9.999685
N -t 11.229396 -n 9 -e 9.999685
N -t 11.229396 -n 2 -e 9.994847
N -t 11.229396 -n 7 -e 9.999657
N -t 11.229396 -n 10 -e 9.999685
N -t 11.229396 -n 1 -e 99.996824
N -t 11.229396 -n 4 -e 9.999685
N -t 11.229396 -n 11 -e 9.999685
N -t 11.229396 -n 6 -e 9.999685
N -t 11.229396 -n 8 -e 9.999685
N -t 11.229396 -n 0 -e 99.996824
N -t 11.230110 -n 5 -e 9.999677
N -t 11.230110 -n 9 -e 9.999677
N -t 11.230110 -n 2 -e 9.994838
N -t 11.230110 -n 7 -e 9.999648
N -t 11.230110 -n 10 -e 9.999677
N -t 11.230110 -n 1 -e 99.996648
N -t 11.230110 -n 4 -e 9.999677
N -t 11.230110 -n 11 -e 9.999677
N -t 11.230110 -n 6 -e 9.999677
N -t 11.230110 -n 8 -e 9.999677
N -t 11.230110 -n 0 -e 99.996648
N -t 11.230472 -n 9 -e 9.999669
N -t 11.230472 -n 7 -e 9.999641
N -t 11.230472 -n 0 -e 99.996496
N -t 11.230472 -n 2 -e 9.994831
N -t 11.230472 -n 3 -e 9.999650
N -t 11.230472 -n 5 -e 9.999669
N -t 11.230472 -n 4 -e 9.999669
N -t 11.230472 -n 8 -e 9.999669
N -t 11.230472 -n 10 -e 9.999669
N -t 11.230472 -n 6 -e 9.999669
N -t 11.230472 -n 11 -e 9.999669
N -t 11.230786 -n 5 -e 9.999652
N -t 11.230786 -n 9 -e 9.999652
N -t 11.230786 -n 2 -e 9.994814
N -t 11.230786 -n 7 -e 9.999624
N -t 11.230786 -n 10 -e 9.999652
N -t 11.230786 -n 1 -e 99.996136
N -t 11.230786 -n 4 -e 9.999652
N -t 11.230786 -n 11 -e 9.999652
N -t 11.230786 -n 6 -e 9.999652
N -t 11.230786 -n 8 -e 9.999652
N -t 11.230786 -n 0 -e 99.996136
N -t 11.231516 -n 9 -e 9.999645
N -t 11.231516 -n 7 -e 9.999616
N -t 11.231516 -n 0 -e 99.995984
N -t 11.231516 -n 2 -e 9.994806
N -t 11.231516 -n 3 -e 9.999616
N -t 11.231516 -n 5 -e 9.999645
N -t 11.231516 -n 4 -e 9.999645
N -t 11.231516 -n 8 -e 9.999645
N -t 11.231516 -n 10 -e 9.999645
N -t 11.231516 -n 6 -e 9.999645
N -t 11.231516 -n 11 -e 9.999645
r -t 11.231531346 -Hs 1 -Hd -2 -Ni 1 -Nx 5.00 -Ny 5.00 -Nz 0.00 -Ne 99.995984 -Nl AGT -Nw --- -Ma 13a -Md 1 -Ms 3 -Mt 800 -Is 3.2020 -Id 1.2020 -It udp -Il 32 -If 0 -Ii 1 -Iv 32 
s -t 11.236886623 -Hs 11 -Hd -2 -Ni 11 -Nx 7.03 -Ny 29.14 -Nz 0.00 -Ne 9.999645 -Nl AGT -Nw --- -Ma 0 -Md 0 -Ms 0 -Mt 0 -Is 11.2020 -Id 1.2020 -It udp -Il 32 -If 0 -Ii 2 -Iv 32 
r -t 11.236886623 -Hs 11 -Hd -2 -Ni 11 -Nx 7.03 -Ny 29.14 -Nz 0.00 -Ne 9.999645 -Nl RTR -Nw --- -Ma 0 -Md 0 -Ms 0 -Mt 0 -Is 11.2020 -Id 1.2020 -It udp -Il 32 -If 0 -Ii 2 -Iv 32 
s -t 11.236886623 -Hs 11 -Hd -2 -Ni 11 -Nx 7.03 -Ny 29.14 -Nz 0.00 -Ne 9.999645 -Nl RTR -Nw --- -Ma 0 -Md 0 -Ms 0 -Mt 0 -Is 11.2020 -Id 1.2020 -It udp -Il 32 -If 0 -Ii 2 -Iv 32 
N -t 11.236982 -n 5 -e 9.999628
N -t 11.236982 -n 3 -e 9.999600
N -t 11.236982 -n 10 -e 9.999628
N -t 11.236982 -n 9 -e 9.999628
N -t 11.236982 -n 2 -e 9.994790
N -t 11.236982 -n 7 -e 9.999600
N -t 11.236982 -n 4 -e 9.999628
N -t 11.236982 -n 6 -e 9.999628
N -t 11.236982 -n 1 -e 99.995640
N -t 11.236982 -n 0 -e 99.995640
N -t 11.236982 -n 8 -e 9.999628
N -t 11.237885 -n 9 -e 9.999620
N -t 11.237885 -n 7 -e 9.999591
N -t 11.237885 -n 0 -e 99.995464
N -t 11.237885 -n 2 -e 9.994781
N -t 11.237885 -n 3 -e 9.999591
N -t 11.237885 -n 5 -e 9.999620
N -t 11.237885 -n 4 -e 9.999620
N -t 11.237885 -n 8 -e 9.999620
N -t 11.237885 -n 10 -e 9.999620
N -t 11.237885 -n 6 -e 9.999620
N -t 11.237885 -n 11 -e 9.999612
N -t 11.238247 -n 5 -e 9.999612
N -t 11.238247 -n 3 -e 9.999584
N -t 11.238247 -n 10 -e 9.999612
N -t 11.238247 -n 9 -e 9.999612
N -t 11.238247 -n 2 -e 9.994774
N -t 11.238247 -n 7 -e 9.999584
N -t 11.238247 -n 4 -e 9.999612
N -t 11.238247 -n 6 -e 9.999612
N -t 11.238247 -n 1 -e 99.995312
N -t 11.238247 -n 0 -e 99.995312
N -t 11.238247 -n 8 -e 9.999612
N -t 11.238561 -n 9 -e 9.999596
N -t 11.238561 -n 7 -e 9.999568
N -t 11.238561 -n 0 -e 99.994968
N -t 11.238561 -n 2 -e 9.994757
N -t 11.238561 -n 3 -e 9.999568
N -t 11.238561 -n 5 -e 9.999596
N -t 11.238561 -n 4 -e 9.999596
N -t 11.238561 -n 8 -e 9.999596
N -t 11.238561 -n 10 -e 9.999596
N -t 11.238561 -n 6 -e 9.999596
N -t 11.238561 -n 11 -e 9.999584
N -t 11.239259 -n 5 -e 9.999589
N -t 11.239259 -n 3 -e 9.999560
N -t 11.239259 -n 10 -e 9.999589
N -t 11.239259 -n 9 -e 9.999589
N -t 11.239259 -n 2 -e 9.994750
N -t 11.239259 -n 7 -e 9.999560
N -t 11.239259 -n 4 -e 9.999589
N -t 11.239259 -n 6 -e 9.999589
N -t 11.239259 -n 1 -e 99.994816
N -t 11.239259 -n 0 -e 99.994816
N -t 11.239259 -n 8 -e 9.999589
N -t 11.239993 -n 5 -e 9.999580
N -t 11.239993 -n 3 -e 9.999552
N -t 11.239993 -n 10 -e 9.999580
N -t 11.239993 -n 9 -e 9.999580
N -t 11.239993 -n 2 -e 9.994742
N -t 11.239993 -n 7 -e 9.999552
N -t 11.239993 -n 4 -e 9.999580
N -t 11.239993 -n 6 -e 9.999580
N -t 11.239993 -n 1 -e 99.994640
N -t 11.239993 -n 0 -e 99.994640
N -t 11.239993 -n 8 -e 9.999580
N -t 11.240355 -n 9 -e 9.999573
N -t 11.240355 -n 7 -e 9.999545
N -t 11.240355 -n 0 -e 99.994488
N -t 11.240355 -n 2 -e 9.994734
N -t 11.240355 -n 3 -e 9.999545
N -t 11.240355 -n 5 -e 9.999573
N -t 11.240355 -n 4 -e 9.999573
N -t 11.240355 -n 8 -e 9.999573
N -t 11.240355 -n 10 -e 9.999573
N -t 11.240355 -n 6 -e 9.999573
N -t 11.240355 -n 11 -e 9.999553
N -t 11.240669 -n 5 -e 9.999556
N -t 11.240669 -n 3 -e 9.999527
N -t 11.240669 -n 10 -e 9.999556
N -t 11.240669 -n 9 -e 9.999556
N -t 11.240669 -n 2 -e 9.994717
N -t 11.240669 -n 7 -e 9.999527
N -t 11.240669 -n 4 -e 9.999556
N -t 11.240669 -n 6 -e 9.999556
N -t 11.240669 -n 1 -e 99.994128
N -t 11.240669 -n 0 -e 99.994128
N -t 11.240669 -n 8 -e 9.999556
N -t 11.241399 -n 9 -e 9.999548
N -t 11.241399 -n 7 -e 9.999520
N -t 11.241399 -n 0 -e 99.993976
N -t 11.241399 -n 2 -e 9.994710
N -t 11.241399 -n 3 -e 9.999520
N -t 11.241399 -n 5 -e 9.999548
N -t 11.241399 -n 4 -e 9.999548
N -t 11.241399 -n 8 -e 9.999548
N -t 11.241399 -n 10 -e 9.999548
N -t 11.241399 -n 6 -e 9.999548
N -t 11.241399 -n 11 -e 9.999520
r -t 11.241414188 -Hs 1 -Hd -2 -Ni 1 -Nx 5.00 -Ny 5.00 -Nz 0.00 -Ne 99.993976 -Nl AGT -Nw --- -Ma 13a -Md 1 -Ms b -Mt 800 -Is 11.2020 -Id 1.2020 -It udp -Il 32 -If 0 -Ii 2 -Iv 32 
s -t 11.317671038 -Hs 8 -Hd -2 -Ni 8 -Nx 25.25 -Ny 4.93 -Nz 0.00 -Ne 9.999548 -Nl AGT -Nw --- -Ma 0 -Md 0 -Ms 0 -Mt 0 -Is 8.2020 -Id 1.2020 -It udp -Il 32 -If 0 -Ii 3 -Iv 32 
r -t 11.317671038 -Hs 8 -Hd -2 -Ni 8 -Nx 25.25 -Ny 4.93 -Nz 0.00 -Ne 9.999548 -Nl RTR -Nw --- -Ma 0 -Md 0 -Ms 0 -Mt 0 -Is 8.2020 -Id 1.2020 -It udp -Il 32 -If 0 -Ii 3 -Iv 32 
s -t 11.317671038 -Hs 8 -Hd -2 -Ni 8 -Nx 25.25 -Ny 4.93 -Nz 0.00 -Ne 9.999548 -Nl RTR -Nw --- -Ma 0 -Md 0 -Ms 0 -Mt 0 -Is 8.2020 -Id 1.2020 -It udp -Il 32 -If 0 -Ii 3 -Iv 32 
N -t 11.317886 -n 4 -e 9.999532
N -t 11.317886 -n 6 -e 9.999532
N -t 11.317886 -n 2 -e 9.994693
N -t 11.317886 -n 7 -e 9.999503
N -t 11.317886 -n 9 -e 9.999532
N -t 11.317886 -n 10 -e 9.999532
N -t 11.317886 -n 3 -e 9.999503
N -t 11.317886 -n 1 -e 99.993632
N -t 11.317886 -n 5 -e 9.999532
N -t 11.317886 -n 0 -e 99.993632
N -t 11.317886 -n 11 -e 9.999503
N -t 11.318969 -n 9 -e 9.999523
N -t 11.318969 -n 7 -e 9.999495
N -t 11.318969 -n 0 -e 99.993456
N -t 11.318969 -n 2 -e 9.994685
N -t 11.318969 -n 3 -e 9.999495
N -t 11.318969 -n 5 -e 9.999523
N -t 11.318969 -n 4 -e 9.999523
N -t 11.318969 -n 8 -e 9.999515
N -t 11.318969 -n 10 -e 9.999523
N -t 11.318969 -n 6 -e 9.999523
N -t 11.318969 -n 11 -e 9.999495
N -t 11.319331 -n 4 -e 9.999516
N -t 11.319331 -n 6 -e 9.999516
N -t 11.319331 -n 2 -e 9.994678
N -t 11.319331 -n 7 -e 9.999488
N -t 11.319331 -n 9 -e 9.999516
N -t 11.319331 -n 10 -e 9.999516
N -t 11.319331 -n 3 -e 9.999488
N -t 11.319331 -n 1 -e 99.993304
N -t 11.319331 -n 5 -e 9.999516
N -t 11.319331 -n 0 -e 99.993304
N -t 11.319331 -n 11 -e 9.999488
N -t 11.319645 -n 9 -e 9.999500
N -t 11.319645 -n 7 -e 9.999471
N -t 11.319645 -n 0 -e 99.992960
N -t 11.319645 -n 2 -e 9.994661
N -t 11.319645 -n 3 -e 9.999471
N -t 11.319645 -n 5 -e 9.999500
N -t 11.319645 -n 4 -e 9.999500
N -t 11.319645 -n 8 -e 9.999488
N -t 11.319645 -n 10 -e 9.999500
N -t 11.319645 -n 6 -e 9.999500
N -t 11.319645 -n 11 -e 9.999471
N -t 11.320343 -n 4 -e 9.999492
N -t 11.320343 -n 6 -e 9.999492
N -t 11.320343 -n 2 -e 9.994654
N -t 11.320343 -n 7 -e 9.999464
N -t 11.320343 -n 9 -e 9.999492
N -t 11.320343 -n 10 -e 9.999492
N -t 11.320343 -n 3 -e 9.999464
N -t 11.320343 -n 1 -e 99.992808
N -t 11.320343 -n 5 -e 9.999492
N -t 11.320343 -n 0 -e 99.992808
N -t 11.320343 -n 11 -e 9.999464
N -t 11.320837 -n 4 -e 9.999484
N -t 11.320837 -n 6 -e 9.999484
N -t 11.320837 -n 2 -e 9.994645
N -t 11.320837 -n 7 -e 9.999455
N -t 11.320837 -n 9 -e 9.999484
N -t 11.320837 -n 10 -e 9.999484
N -t 11.320837 -n 3 -e 9.999455
N -t 11.320837 -n 1 -e 99.992632
N -t 11.320837 -n 5 -e 9.999484
N -t 11.320837 -n 0 -e 99.992632
N -t 11.320837 -n 11 -e 9.999455
N -t 11.321199 -n 9 -e 9.999477
N -t 11.321199 -n 7 -e 9.999448
N -t 11.321199 -n 0 -e 99.992480
N -t 11.321199 -n 2 -e 9.994638
N -t 11.321199 -n 3 -e 9.999448
N -t 11.321199 -n 5 -e 9.999477
N -t 11.321199 -n 4 -e 9.999477
N -t 11.321199 -n 8 -e 9.999457
N -t 11.321199 -n 10 -e 9.999477
N -t 11.321199 -n 6 -e 9.999477
N -t 11.321199 -n 11 -e 9.999448
N -t 11.321513 -n 4 -e 9.999459
N -t 11.321513 -n 6 -e 9.999459
N -t 11.321513 -n 2 -e 9.994621
N -t 11.321513 -n 7 -e 9.999431
N -t 11.321513 -n 9 -e 9.999459
N -t 11.321513 -n 10 -e 9.999459
N -t 11.321514 -n 3 -e 9.999431
N -t 11.321514 -n 1 -e 99.992120
N -t 11.321514 -n 5 -e 9.999459
N -t 11.321514 -n 0 -e 99.992120
N -t 11.321514 -n 11 -e 9.999431
N -t 11.322244 -n 9 -e 9.999452
N -t 11.322244 -n 7 -e 9.999424
N -t 11.322244 -n 0 -e 99.991968
N -t 11.322244 -n 2 -e 9.994613
N -t 11.322244 -n 3 -e 9.999424
N -t 11.322244 -n 5 -e 9.999452
N -t 11.322244 -n 4 -e 9.999452
N -t 11.322244 -n 8 -e 9.999424
N -t 11.322244 -n 10 -e 9.999452
N -t 11.322244 -n 6 -e 9.999452
N -t 11.322244 -n 11 -e 9.999424
r -t 11.322258511 -Hs 1 -Hd -2 -Ni 1 -Nx 5.00 -Ny 5.00 -Nz 0.00 -Ne 99.991968 -Nl AGT -Nw --- -Ma 13a -Md 1 -Ms 8 -Mt 800 -Is 8.2020 -Id 1.2020 -It udp -Il 32 -If 0 -Ii 3 -Iv 32 
s -t 11.323045848 -Hs 2 -Hd -2 -Ni 2 -Nx 12.79 -Ny 9.96 -Nz 0.00 -Ne 9.994613 -Nl AGT -Nw --- -Ma 0 -Md 0 -Ms 0 -Mt 0 -Is 2.2020 -Id 1.2020 -It udp -Il 32 -If 0 -Ii 4 -Iv 32 
r -t 11.323045848 -Hs 2 -Hd -2 -Ni 2 -Nx 12.79 -Ny 9.96 -Nz 0.00 -Ne 9.994613 -Nl RTR -Nw --- -Ma 0 -Md 0 -Ms 0 -Mt 0 -Is 2.2020 -Id 1.2020 -It udp -Il 32 -If 0 -Ii 4 -Iv 32 
s -t 11.323045848 -Hs 2 -Hd -2 -Ni 2 -Nx 12.79 -Ny 9.96 -Nz 0.00 -Ne 9.994613 -Nl RTR -Nw --- -Ma 0 -Md 0 -Ms 0 -Mt 0 -Is 2.2020 -Id 1.2020 -It udp -Il 32 -If 0 -Ii 4 -Iv 32 
N -t 11.323321 -n 7 -e 9.999407
N -t 11.323321 -n 9 -e 9.999435
N -t 11.323321 -n 3 -e 9.999407
N -t 11.323321 -n 1 -e 99.991624
N -t 11.323321 -n 4 -e 9.999435
N -t 11.323321 -n 5 -e 9.999435
N -t 11.323321 -n 10 -e 9.999435
N -t 11.323321 -n 8 -e 9.999407
N -t 11.323321 -n 6 -e 9.999435
N -t 11.323321 -n 0 -e 99.991624
N -t 11.323321 -n 11 -e 9.999407
N -t 11.324304 -n 9 -e 9.999427
N -t 11.324304 -n 7 -e 9.999399
N -t 11.324304 -n 0 -e 99.991448
N -t 11.324304 -n 2 -e 9.994580
N -t 11.324304 -n 3 -e 9.999399
N -t 11.324304 -n 5 -e 9.999427
N -t 11.324304 -n 4 -e 9.999427
N -t 11.324304 -n 8 -e 9.999399
N -t 11.324304 -n 10 -e 9.999427
N -t 11.324304 -n 6 -e 9.999427
N -t 11.324304 -n 11 -e 9.999399
N -t 11.324666 -n 7 -e 9.999391
N -t 11.324666 -n 9 -e 9.999420
N -t 11.324666 -n 3 -e 9.999391
N -t 11.324666 -n 1 -e 99.991296
N -t 11.324666 -n 4 -e 9.999420
N -t 11.324666 -n 5 -e 9.999420
N -t 11.324666 -n 10 -e 9.999420
N -t 11.324666 -n 8 -e 9.999391
N -t 11.324666 -n 6 -e 9.999420
N -t 11.324666 -n 0 -e 99.991296
N -t 11.324666 -n 11 -e 9.999391
N -t 11.324980 -n 9 -e 9.999403
N -t 11.324980 -n 7 -e 9.999375
N -t 11.324980 -n 0 -e 99.990952
N -t 11.324980 -n 2 -e 9.994553
N -t 11.324980 -n 3 -e 9.999375
N -t 11.324980 -n 5 -e 9.999403
N -t 11.324980 -n 4 -e 9.999403
N -t 11.324980 -n 8 -e 9.999375
N -t 11.324980 -n 10 -e 9.999403
N -t 11.324980 -n 6 -e 9.999403
N -t 11.324980 -n 11 -e 9.999375
N -t 11.325678 -n 7 -e 9.999367
N -t 11.325678 -n 9 -e 9.999396
N -t 11.325678 -n 3 -e 9.999367
N -t 11.325678 -n 1 -e 99.990800
N -t 11.325678 -n 4 -e 9.999396
N -t 11.325678 -n 5 -e 9.999396
N -t 11.325678 -n 10 -e 9.999396
N -t 11.325678 -n 8 -e 9.999367
N -t 11.325678 -n 6 -e 9.999396
N -t 11.325678 -n 0 -e 99.990800
N -t 11.325678 -n 11 -e 9.999367
N -t 11.326472 -n 7 -e 9.999359
N -t 11.326472 -n 9 -e 9.999387
N -t 11.326472 -n 3 -e 9.999359
N -t 11.326472 -n 1 -e 99.990624
N -t 11.326472 -n 4 -e 9.999387
N -t 11.326472 -n 5 -e 9.999387
N -t 11.326472 -n 10 -e 9.999387
N -t 11.326472 -n 8 -e 9.999359
N -t 11.326472 -n 6 -e 9.999387
N -t 11.326472 -n 0 -e 99.990624
N -t 11.326472 -n 11 -e 9.999359
N -t 11.326834 -n 9 -e 9.999380
N -t 11.326834 -n 7 -e 9.999352
N -t 11.326834 -n 0 -e 99.990472
N -t 11.326834 -n 2 -e 9.994522
N -t 11.326834 -n 3 -e 9.999352
N -t 11.326834 -n 5 -e 9.999380
N -t 11.326834 -n 4 -e 9.999380
N -t 11.326834 -n 8 -e 9.999352
N -t 11.326834 -n 10 -e 9.999380
N -t 11.326834 -n 6 -e 9.999380
N -t 11.326834 -n 11 -e 9.999352
N -t 11.327148 -n 7 -e 9.999334
N -t 11.327148 -n 9 -e 9.999363
N -t 11.327148 -n 3 -e 9.999334
N -t 11.327148 -n 1 -e 99.990112
N -t 11.327148 -n 4 -e 9.999363
N -t 11.327148 -n 5 -e 9.999363
N -t 11.327148 -n 10 -e 9.999363
N -t 11.327148 -n 8 -e 9.999334
N -t 11.327148 -n 6 -e 9.999363
N -t 11.327148 -n 0 -e 99.990112
N -t 11.327148 -n 11 -e 9.999334
N -t 11.327878 -n 9 -e 9.999356
N -t 11.327878 -n 7 -e 9.999327
N -t 11.327878 -n 0 -e 99.989960
N -t 11.327878 -n 2 -e 9.994489
N -t 11.327878 -n 3 -e 9.999327
N -t 11.327878 -n 5 -e 9.999356
N -t 11.327878 -n 4 -e 9.999356
N -t 11.327878 -n 8 -e 9.999327
N -t 11.327878 -n 10 -e 9.999356
N -t 11.327878 -n 6 -e 9.999356
N -t 11.327878 -n 11 -e 9.999327
r -t 11.327893063 -Hs 1 -Hd -2 -Ni 1 -Nx 5.00 -Ny 5.00 -Nz 0.00 -Ne 99.989960 -Nl AGT -Nw --- -Ma 13a -Md 1 -Ms 2 -Mt 800 -Is 2.2020 -Id 1.2020 -It udp -Il 32 -If 0 -Ii 4 -Iv 32 
s -t 11.396072817 -Hs 6 -Hd -2 -Ni 6 -Nx 24.90 -Ny 16.52 -Nz 0.00 -Ne 9.999356 -Nl AGT -Nw --- -Ma 0 -Md 0 -Ms 0 -Mt 0 -Is 6.2020 -Id 1.2020 -It udp -Il 32 -If 0 -Ii 5 -Iv 32 
r -t 11.396072817 -Hs 6 -Hd -2 -Ni 6 -Nx 24.90 -Ny 16.52 -Nz 0.00 -Ne 9.999356 -Nl RTR -Nw --- -Ma 0 -Md 0 -Ms 0 -Mt 0 -Is 6.2020 -Id 1.2020 -It udp -Il 32 -If 0 -Ii 5 -Iv 32 
s -t 11.396072817 -Hs 6 -Hd -2 -Ni 6 -Nx 24.90 -Ny 16.52 -Nz 0.00 -Ne 9.999356 -Nl RTR -Nw --- -Ma 0 -Md 0 -Ms 0 -Mt 0 -Is 6.2020 -Id 1.2020 -It udp -Il 32 -If 0 -Ii 5 -Iv 32 
N -t 11.396528 -n 4 -e 9.999339
N -t 11.396528 -n 10 -e 9.999339
N -t 11.396528 -n 8 -e 9.999311
N -t 11.396528 -n 5 -e 9.999339
N -t 11.396528 -n 2 -e 9.994472
N -t 11.396528 -n 3 -e 9.999311
N -t 11.396528 -n 7 -e 9.999311
N -t 11.396528 -n 9 -e 9.999339
N -t 11.396528 -n 11 -e 9.999311
N -t 11.396528 -n 1 -e 99.989616
N -t 11.396528 -n 0 -e 99.989616
N -t 11.397631 -n 9 -e 9.999331
N -t 11.397631 -n 7 -e 9.999302
N -t 11.397631 -n 0 -e 99.989440
N -t 11.397631 -n 2 -e 9.994464
N -t 11.397631 -n 3 -e 9.999302
N -t 11.397631 -n 5 -e 9.999331
N -t 11.397631 -n 4 -e 9.999331
N -t 11.397631 -n 8 -e 9.999302
N -t 11.397631 -n 10 -e 9.999331
N -t 11.397631 -n 6 -e 9.999322
N -t 11.397631 -n 11 -e 9.999302
N -t 11.397993 -n 4 -e 9.999323
N -t 11.397993 -n 10 -e 9.999323
N -t 11.397993 -n 8 -e 9.999295
N -t 11.397993 -n 5 -e 9.999323
N -t 11.397993 -n 2 -e 9.994456
N -t 11.397993 -n 3 -e 9.999295
N -t 11.397993 -n 7 -e 9.999295
N -t 11.397993 -n 9 -e 9.999323
N -t 11.397993 -n 11 -e 9.999295
N -t 11.397993 -n 1 -e 99.989288
N -t 11.397993 -n 0 -e 99.989288
N -t 11.398307 -n 9 -e 9.999307
N -t 11.398307 -n 7 -e 9.999278
N -t 11.398307 -n 0 -e 99.988944
N -t 11.398307 -n 2 -e 9.994440
N -t 11.398307 -n 3 -e 9.999278
N -t 11.398307 -n 5 -e 9.999307
N -t 11.398307 -n 4 -e 9.999307
N -t 11.398307 -n 8 -e 9.999278
N -t 11.398307 -n 10 -e 9.999307
N -t 11.398307 -n 6 -e 9.999295
N -t 11.398307 -n 11 -e 9.999278
N -t 11.399005 -n 4 -e 9.999300
N -t 11.399005 -n 10 -e 9.999300
N -t 11.399005 -n 8 -e 9.999271
N -t 11.399005 -n 5 -e 9.999300
N -t 11.399005 -n 2 -e 9.994433
N -t 11.399005 -n 3 -e 9.999271
N -t 11.399005 -n 7 -e 9.999271
N -t 11.399005 -n 9 -e 9.999300
N -t 11.399005 -n 11 -e 9.999271
N -t 11.399005 -n 1 -e 99.988792
N -t 11.399005 -n 0 -e 99.988792
N -t 11.399539 -n 4 -e 9.999291
N -t 11.399539 -n 10 -e 9.999291
N -t 11.399539 -n 8 -e 9.999263
N -t 11.399539 -n 5 -e 9.999291
N -t 11.399539 -n 2 -e 9.994424
N -t 11.399539 -n 3 -e 9.999263
N -t 11.399539 -n 7 -e 9.999263
N -t 11.399539 -n 9 -e 9.999291
N -t 11.399539 -n 11 -e 9.999263
N -t 11.399539 -n 1 -e 99.988616
N -t 11.399539 -n 0 -e 99.988616
N -t 11.399901 -n 9 -e 9.999284
N -t 11.399901 -n 7 -e 9.999255
N -t 11.399901 -n 0 -e 99.988464
N -t 11.399901 -n 2 -e 9.994417
N -t 11.399901 -n 3 -e 9.999255
N -t 11.399901 -n 5 -e 9.999284
N -t 11.399901 -n 4 -e 9.999284
N -t 11.399901 -n 8 -e 9.999255
N -t 11.399901 -n 10 -e 9.999284
N -t 11.399901 -n 6 -e 9.999264
N -t 11.399901 -n 11 -e 9.999255
N -t 11.400215 -n 4 -e 9.999266
N -t 11.400215 -n 10 -e 9.999266
N -t 11.400215 -n 8 -e 9.999238
N -t 11.400215 -n 5 -e 9.999266
N -t 11.400215 -n 2 -e 9.994400
N -t 11.400215 -n 3 -e 9.999238
N -t 11.400215 -n 7 -e 9.999238
N -t 11.400215 -n 9 -e 9.999266
N -t 11.400215 -n 11 -e 9.999238
N -t 11.400215 -n 1 -e 99.988104
N -t 11.400215 -n 0 -e 99.988104
N -t 11.400945 -n 9 -e 9.999259
N -t 11.400945 -n 7 -e 9.999231
N -t 11.400945 -n 0 -e 99.987952
N -t 11.400945 -n 2 -e 9.994392
N -t 11.400945 -n 3 -e 9.999231
N -t 11.400945 -n 5 -e 9.999259
N -t 11.400945 -n 4 -e 9.999259
N -t 11.400945 -n 8 -e 9.999231
N -t 11.400945 -n 10 -e 9.999259
N -t 11.400945 -n 6 -e 9.999231
N -t 11.400945 -n 11 -e 9.999231
r -t 11.400960354 -Hs 1 -Hd -2 -Ni 1 -Nx 5.00 -Ny 5.00 -Nz 0.00 -Ne 99.987952 -Nl AGT -Nw --- -Ma 13a -Md 1 -Ms 6 -Mt 800 -Is 6.2020 -Id 1.2020 -It udp -Il 32 -If 0 -Ii 5 -Iv 32 
s -t 11.550894656 -Hs 10 -Hd -2 -Ni 10 -Nx 20.23 -Ny 20.14 -Nz 0.00 -Ne 9.999259 -Nl AGT -Nw --- -Ma 0 -Md 0 -Ms 0 -Mt 0 -Is 10.2020 -Id 1.2020 -It udp -Il 32 -If 0 -Ii 6 -Iv 32 
r -t 11.550894656 -Hs 10 -Hd -2 -Ni 10 -Nx 20.23 -Ny 20.14 -Nz 0.00 -Ne 9.999259 -Nl RTR -Nw --- -Ma 0 -Md 0 -Ms 0 -Mt 0 -Is 10.2020 -Id 1.2020 -It udp -Il 32 -If 0 -Ii 6 -Iv 32 
s -t 11.550894656 -Hs 10 -Hd -2 -Ni 10 -Nx 20.23 -Ny 20.14 -Nz 0.00 -Ne 9.999259 -Nl RTR -Nw --- -Ma 0 -Md 0 -Ms 0 -Mt 0 -Is 10.2020 -Id 1.2020 -It udp -Il 32 -If 0 -Ii 6 -Iv 32 
N -t 11.551310 -n 6 -e 9.999214
N -t 11.551310 -n 4 -e 9.999243
N -t 11.551310 -n 5 -e 9.999243
N -t 11.551310 -n 3 -e 9.999214
N -t 11.551310 -n 2 -e 9.994376
N -t 11.551310 -n 7 -e 9.999214
N -t 11.551310 -n 9 -e 9.999243
N -t 11.551310 -n 11 -e 9.999214
N -t 11.551310 -n 8 -e 9.999214
N -t 11.551310 -n 1 -e 99.987608
N -t 11.551310 -n 0 -e 99.987608
N -t 11.552133 -n 9 -e 9.999234
N -t 11.552133 -n 7 -e 9.999206
N -t 11.552133 -n 0 -e 99.987432
N -t 11.552133 -n 2 -e 9.994367
N -t 11.552133 -n 3 -e 9.999206
N -t 11.552133 -n 5 -e 9.999234
N -t 11.552133 -n 4 -e 9.999234
N -t 11.552133 -n 8 -e 9.999206
N -t 11.552133 -n 10 -e 9.999226
N -t 11.552133 -n 6 -e 9.999206
N -t 11.552133 -n 11 -e 9.999206
N -t 11.552495 -n 6 -e 9.999199
N -t 11.552495 -n 4 -e 9.999227
N -t 11.552495 -n 5 -e 9.999227
N -t 11.552495 -n 3 -e 9.999199
N -t 11.552495 -n 2 -e 9.994360
N -t 11.552495 -n 7 -e 9.999199
N -t 11.552495 -n 9 -e 9.999227
N -t 11.552495 -n 11 -e 9.999199
N -t 11.552495 -n 8 -e 9.999199
N -t 11.552495 -n 1 -e 99.987280
N -t 11.552495 -n 0 -e 99.987280
N -t 11.552809 -n 9 -e 9.999210
N -t 11.552809 -n 7 -e 9.999182
N -t 11.552809 -n 0 -e 99.986936
N -t 11.552809 -n 2 -e 9.994344
N -t 11.552809 -n 3 -e 9.999182
N -t 11.552809 -n 5 -e 9.999210
N -t 11.552809 -n 4 -e 9.999210
N -t 11.552809 -n 8 -e 9.999182
N -t 11.552809 -n 10 -e 9.999199
N -t 11.552809 -n 6 -e 9.999182
N -t 11.552809 -n 11 -e 9.999182
N -t 11.553507 -n 6 -e 9.999175
N -t 11.553507 -n 4 -e 9.999203
N -t 11.553507 -n 5 -e 9.999203
N -t 11.553507 -n 3 -e 9.999175
N -t 11.553507 -n 2 -e 9.994336
N -t 11.553507 -n 7 -e 9.999175
N -t 11.553507 -n 9 -e 9.999203
N -t 11.553507 -n 11 -e 9.999175
N -t 11.553507 -n 8 -e 9.999175
N -t 11.553507 -n 1 -e 99.986784
N -t 11.553507 -n 0 -e 99.986784
N -t 11.553921 -n 6 -e 9.999166
N -t 11.553921 -n 4 -e 9.999195
N -t 11.553921 -n 5 -e 9.999195
N -t 11.553921 -n 3 -e 9.999166
N -t 11.553921 -n 2 -e 9.994328
N -t 11.553921 -n 7 -e 9.999166
N -t 11.553921 -n 9 -e 9.999195
N -t 11.553921 -n 11 -e 9.999166
N -t 11.553921 -n 8 -e 9.999166
N -t 11.553921 -n 1 -e 99.986608
N -t 11.553921 -n 0 -e 99.986608
N -t 11.554283 -n 9 -e 9.999187
N -t 11.554283 -n 7 -e 9.999159
N -t 11.554283 -n 0 -e 99.986456
N -t 11.554283 -n 2 -e 9.994320
N -t 11.554283 -n 3 -e 9.999159
N -t 11.554283 -n 5 -e 9.999187
N -t 11.554283 -n 4 -e 9.999187
N -t 11.554283 -n 8 -e 9.999159
N -t 11.554283 -n 10 -e 9.999168
N -t 11.554283 -n 6 -e 9.999159
N -t 11.554283 -n 11 -e 9.999159
N -t 11.554597 -n 6 -e 9.999142
N -t 11.554597 -n 4 -e 9.999170
N -t 11.554597 -n 5 -e 9.999170
N -t 11.554597 -n 3 -e 9.999142
N -t 11.554597 -n 2 -e 9.994303
N -t 11.554597 -n 7 -e 9.999142
N -t 11.554597 -n 9 -e 9.999170
N -t 11.554597 -n 11 -e 9.999142
N -t 11.554597 -n 8 -e 9.999142
N -t 11.554597 -n 1 -e 99.986096
N -t 11.554597 -n 0 -e 99.986096
N -t 11.555327 -n 9 -e 9.999163
N -t 11.555327 -n 7 -e 9.999134
N -t 11.555327 -n 0 -e 99.985944
N -t 11.555327 -n 2 -e 9.994296
N -t 11.555327 -n 3 -e 9.999134
N -t 11.555327 -n 5 -e 9.999163
N -t 11.555327 -n 4 -e 9.999163
N -t 11.555327 -n 8 -e 9.999134
N -t 11.555327 -n 10 -e 9.999134
N -t 11.555327 -n 6 -e 9.999134
N -t 11.555327 -n 11 -e 9.999134
r -t 11.555342157 -Hs 1 -Hd -2 -Ni 1 -Nx 5.00 -Ny 5.00 -Nz 0.00 -Ne 99.985944 -Nl AGT -Nw --- -Ma 13a -Md 1 -Ms a -Mt 800 -Is 10.2020 -Id 1.2020 -It udp -Il 32 -If 0 -Ii 6 -Iv 32 
s -t 11.665761270 -Hs 5 -Hd -2 -Ni 5 -Nx 13.05 -Ny 21.70 -Nz 0.00 -Ne 9.999163 -Nl AGT -Nw --- -Ma 0 -Md 0 -Ms 0 -Mt 0 -Is 5.2020 -Id 1.2020 -It udp -Il 32 -If 0 -Ii 7 -Iv 32 
r -t 11.665761270 -Hs 5 -Hd -2 -Ni 5 -Nx 13.05 -Ny 21.70 -Nz 0.00 -Ne 9.999163 -Nl RTR -Nw --- -Ma 0 -Md 0 -Ms 0 -Mt 0 -Is 5.2020 -Id 1.2020 -It udp -Il 32 -If 0 -Ii 7 -Iv 32 
s -t 11.665761270 -Hs 5 -Hd -2 -Ni 5 -Nx 13.05 -Ny 21.70 -Nz 0.00 -Ne 9.999163 -Nl RTR -Nw --- -Ma 0 -Md 0 -Ms 0 -Mt 0 -Is 5.2020 -Id 1.2020 -It udp -Il 32 -If 0 -Ii 7 -Iv 32 
N -t 11.665916 -n 3 -e 9.999118
N -t 11.665916 -n 10 -e 9.999118
N -t 11.665916 -n 11 -e 9.999118
N -t 11.665916 -n 2 -e 9.994279
N -t 11.665916 -n 4 -e 9.999146
N -t 11.665916 -n 9 -e 9.999146
N -t 11.665916 -n 6 -e 9.999118
N -t 11.665916 -n 7 -e 9.999118
N -t 11.665916 -n 1 -e 99.985600
N -t 11.665916 -n 8 -e 9.999118
N -t 11.665916 -n 0 -e 99.985600
N -t 11.666879 -n 9 -e 9.999138
N -t 11.666879 -n 7 -e 9.999109
N -t 11.666879 -n 0 -e 99.985424
N -t 11.666879 -n 2 -e 9.994271
N -t 11.666879 -n 3 -e 9.999109
N -t 11.666879 -n 5 -e 9.999130
N -t 11.666879 -n 4 -e 9.999138
N -t 11.666879 -n 8 -e 9.999109
N -t 11.666879 -n 10 -e 9.999109
N -t 11.666879 -n 6 -e 9.999109
N -t 11.666879 -n 11 -e 9.999109
N -t 11.667241 -n 3 -e 9.999102
N -t 11.667241 -n 10 -e 9.999102
N -t 11.667241 -n 11 -e 9.999102
N -t 11.667241 -n 2 -e 9.994264
N -t 11.667241 -n 4 -e 9.999131
N -t 11.667241 -n 9 -e 9.999131
N -t 11.667241 -n 6 -e 9.999102
N -t 11.667241 -n 7 -e 9.999102
N -t 11.667241 -n 1 -e 99.985272
N -t 11.667241 -n 8 -e 9.999102
N -t 11.667241 -n 0 -e 99.985272
N -t 11.667555 -n 9 -e 9.999114
N -t 11.667555 -n 7 -e 9.999086
N -t 11.667555 -n 0 -e 99.984928
N -t 11.667555 -n 2 -e 9.994247
N -t 11.667555 -n 3 -e 9.999086
N -t 11.667556 -n 5 -e 9.999102
N -t 11.667556 -n 4 -e 9.999114
N -t 11.667556 -n 8 -e 9.999086
N -t 11.667556 -n 10 -e 9.999086
N -t 11.667556 -n 6 -e 9.999086
N -t 11.667556 -n 11 -e 9.999086
N -t 11.668254 -n 3 -e 9.999078
N -t 11.668254 -n 10 -e 9.999078
N -t 11.668254 -n 11 -e 9.999078
N -t 11.668254 -n 2 -e 9.994240
N -t 11.668254 -n 4 -e 9.999107
N -t 11.668254 -n 9 -e 9.999107
N -t 11.668254 -n 6 -e 9.999078
N -t 11.668254 -n 7 -e 9.999078
N -t 11.668254 -n 1 -e 99.984776
N -t 11.668254 -n 8 -e 9.999078
N -t 11.668254 -n 0 -e 99.984776
N -t 11.668908 -n 3 -e 9.999070
N -t 11.668908 -n 10 -e 9.999070
N -t 11.668908 -n 11 -e 9.999070
N -t 11.668908 -n 2 -e 9.994231
N -t 11.668908 -n 4 -e 9.999098
N -t 11.668908 -n 9 -e 9.999098
N -t 11.668908 -n 6 -e 9.999070
N -t 11.668908 -n 7 -e 9.999070
N -t 11.668908 -n 1 -e 99.984600
N -t 11.668908 -n 8 -e 9.999070